REMARK  Name = 
REMARK  5 active torsions:
REMARK  status: ('A' for Active; 'I' for Inactive)
REMARK    1  A    between atoms: O_1  and  C_2
REMARK    2  A    between atoms: C_2  and  C_3
REMARK    3  A    between atoms: C_3  and  C_4
REMARK    4  A    between atoms: C_4  and  C_5
REMARK    5  A    between atoms: C_5  and  O_6
REMARK                            x       y       z     vdW  Elec       q    Type
REMARK                         _______ _______ _______ _____ _____    ______ ____
ROOT
ATOM      1  C   UNL     1       1.959   1.843   1.784  0.00  0.00    +0.250 C 
ATOM      2  O   UNL     1       2.387   2.656   2.611  0.00  0.00    -0.285 OA
ENDROOT
BRANCH   1   3
ATOM      3  C   UNL     1       0.443   1.768   1.706  0.00  0.00    +0.373 C 
ATOM      4  O   UNL     1      -0.159   1.030   0.956  0.00  0.00    -0.242 OA
BRANCH   3   5
ATOM      5  O   UNL     1      -0.124   2.625   2.572  0.00  0.00    -0.475 OA
ATOM      6  H   UNL     1       0.579   3.112   3.068  0.00  0.00    +0.295 HD
ENDBRANCH   3   5
ENDBRANCH   1   3
BRANCH   1   7
ATOM      7  C   UNL     1       2.867   1.013   0.942  0.00  0.00    +0.206 C 
BRANCH   7   8
ATOM      8  C   UNL     1       2.530  -0.009  -0.094  0.00  0.00    +0.313 C 
ATOM      9  O   UNL     1       3.448  -0.585  -0.676  0.00  0.00    -0.251 OA
BRANCH   8  10
ATOM     10  O   UNL     1       1.275  -0.320  -0.412  0.00  0.00    -0.480 OA
ATOM     11  H   UNL     1       0.511   0.115   0.028  0.00  0.00    +0.295 HD
ENDBRANCH   8  10
ENDBRANCH   7   8
ENDBRANCH   1   7
TORSDOF 5
