REMARK  Name = 
REMARK  31 active torsions:
REMARK  status: ('A' for Active; 'I' for Inactive)
REMARK    1  A    between atoms: C_1  and  C_2
REMARK    2  A    between atoms: C_1  and  C_52
REMARK    3  A    between atoms: C_2  and  S_3
REMARK    4  A    between atoms: S_3  and  C_4
REMARK    5  A    between atoms: C_4  and  C_5
REMARK    6  A    between atoms: C_5  and  N_6
REMARK    7  A    between atoms: C_7  and  C_8
REMARK    8  A    between atoms: C_8  and  C_9
REMARK    9  A    between atoms: C_9  and  N_10
REMARK   10  A    between atoms: C_11  and  C_12
REMARK   11  A    between atoms: C_12  and  C_13
REMARK   12  A    between atoms: C_12  and  O_19
REMARK   13  A    between atoms: C_13  and  C_14
REMARK   14  A    between atoms: C_13  and  C_20
REMARK   15  A    between atoms: C_13  and  C_21
REMARK   16  A    between atoms: C_14  and  O_15
REMARK   17  A    between atoms: O_15  and  P_22
REMARK   18  A    between atoms: P_22  and  O_24
REMARK   19  A    between atoms: P_22  and  O_51
REMARK   20  A    between atoms: C_25  and  O_31
REMARK   21  A    between atoms: C_26  and  O_32
REMARK   22  A    between atoms: C_27  and  C_30
REMARK   23  A    between atoms: C_29  and  N_39
REMARK   24  A    between atoms: C_30  and  O_47
REMARK   25  A    between atoms: O_32  and  P_33
REMARK   26  A    between atoms: P_33  and  O_34
REMARK   27  A    between atoms: P_33  and  O_35
REMARK   28  A    between atoms: O_47  and  P_48
REMARK   29  A    between atoms: P_48  and  O_49
REMARK   30  A    between atoms: P_48  and  O_51
REMARK   31  A    between atoms: C_52  and  C_53
REMARK                            x       y       z     vdW  Elec       q    Type
REMARK                         _______ _______ _______ _____ _____    ______ ____
ROOT
ATOM      1  P   UNL     1       0.852  -1.935   0.758  0.00  0.00    +0.483 P 
ATOM      2  O   UNL     1       0.054  -0.871   1.435  0.00  0.00    -0.227 OA
ENDROOT
BRANCH   1   3
ATOM      3  O   UNL     1       1.951  -1.308  -0.224  0.00  0.00    -0.302 OA
ATOM      4  H   UNL     1       1.782  -0.363  -0.397  0.00  0.00    +0.222 HD
ENDBRANCH   1   3
BRANCH   1   5
ATOM      5  O   UNL     1       1.673  -2.861   1.783  0.00  0.00    -0.284 OA
BRANCH   5   6
ATOM      6  C   UNL     1       3.090  -2.768   1.824  0.00  0.00    +0.206 C 
BRANCH   6   9
ATOM      7  C   UNL     1       5.210   0.070   3.003  0.00  0.00    +0.196 C 
ATOM      8  C   UNL     1       5.027  -1.229   2.213  0.00  0.00    +0.194 C 
ATOM      9  C   UNL     1       3.545  -1.411   2.354  0.00  0.00    +0.179 C 
ATOM     10  O   UNL     1       3.339  -1.212   3.787  0.00  0.00    -0.346 OA
ATOM     11  C   UNL     1       4.363  -0.256   4.254  0.00  0.00    +0.253 C 
BRANCH  11  14
ATOM     12  C   UNL     1       7.063  -1.310   6.364  0.00  0.00    +0.147 A 
ATOM     13  C   UNL     1       6.331  -0.266   5.823  0.00  0.00    +0.167 A 
ATOM     14  N   UNL     1       5.202  -0.857   5.294  0.00  0.00    -0.286 N 
ATOM     15  C   UNL     1       5.216  -2.165   5.698  0.00  0.00    +0.203 A 
ATOM     16  N   UNL     1       6.350  -2.488   6.288  0.00  0.00    -0.231 NA
ATOM     17  C   UNL     1       8.368  -1.012   6.802  0.00  0.00    +0.147 A 
ATOM     18  N   UNL     1       8.788   0.274   6.744  0.00  0.00    -0.219 NA
ATOM     19  C   UNL     1       7.942   1.202   6.250  0.00  0.00    +0.225 A 
ATOM     20  N   UNL     1       6.713   1.022   5.722  0.00  0.00    -0.216 NA
ATOM     21  N   UNL     1       9.281  -1.976   7.212  0.00  0.00    -0.341 N 
ATOM     22  H   UNL     1       9.056  -2.898   6.855  0.00  0.00    +0.144 HD
ATOM     23  H   UNL     1      10.233  -1.657   7.066  0.00  0.00    +0.144 HD
ENDBRANCH  11  14
BRANCH   7  24
ATOM     24  O   UNL     1       4.748   1.198   2.251  0.00  0.00    -0.385 OA
ATOM     25  H   UNL     1       3.776   1.249   2.271  0.00  0.00    +0.210 HD
ENDBRANCH   7  24
BRANCH   8  26
ATOM     26  O   UNL     1       5.604  -1.258   0.904  0.00  0.00    -0.278 OA
BRANCH  26  27
ATOM     27  P   UNL     1       7.298  -1.113   1.225  0.00  0.00    +0.473 P 
ATOM     28  O   UNL     1       8.814  -0.984   1.511  0.00  0.00    -0.228 OA
BRANCH  27  29
ATOM     29  O   UNL     1       7.485  -1.231  -0.393  0.00  0.00    -0.303 OA
ATOM     30  H   UNL     1       7.451  -0.358  -0.820  0.00  0.00    +0.222 HD
ENDBRANCH  27  29
BRANCH  27  31
ATOM     31  O   UNL     1       7.310  -2.714   1.554  0.00  0.00    -0.303 OA
ATOM     32  H   UNL     1       8.249  -2.983   1.493  0.00  0.00    +0.222 HD
ENDBRANCH  27  31
ENDBRANCH  26  27
ENDBRANCH   8  26
ENDBRANCH   6   9
ENDBRANCH   5   6
ENDBRANCH   1   5
BRANCH   1  33
ATOM     33  O   UNL     1       0.020  -2.941  -0.151  0.00  0.00    -0.186 OA
BRANCH  33  34
ATOM     34  P   UNL     1      -0.876  -4.107   0.761  0.00  0.00    +0.483 P 
ATOM     35  O   UNL     1      -0.557  -5.162  -0.300  0.00  0.00    -0.227 OA
BRANCH  34  36
ATOM     36  O   UNL     1      -2.287  -3.401   0.347  0.00  0.00    -0.302 OA
ATOM     37  H   UNL     1      -2.728  -2.953   1.089  0.00  0.00    +0.222 HD
ENDBRANCH  34  36
BRANCH  34  38
ATOM     38  O   UNL     1      -1.772  -5.273   1.672  0.00  0.00    -0.286 OA
BRANCH  38  39
ATOM     39  C   UNL     1      -1.062  -6.401   2.166  0.00  0.00    +0.181 C 
BRANCH  39  40
ATOM     40  C   UNL     1      -1.935  -7.314   3.084  0.00  0.00    +0.024 C 
ATOM     41  C   UNL     1      -2.448  -6.506   4.295  0.00  0.00    +0.016 C 
ATOM     42  C   UNL     1      -1.002  -8.422   3.644  0.00  0.00    +0.016 C 
BRANCH  40  43
ATOM     43  C   UNL     1      -3.094  -8.011   2.285  0.00  0.00    +0.208 C 
BRANCH  43  45
ATOM     44  N   UNL     1      -4.976  -6.411   2.458  0.00  0.00    -0.313 N 
ATOM     45  C   UNL     1      -4.119  -7.076   1.604  0.00  0.00    +0.242 C 
ATOM     46  O   UNL     1      -4.182  -6.954   0.381  0.00  0.00    -0.273 OA
ATOM     47  H   UNL     1      -4.931  -6.615   3.445  0.00  0.00    +0.149 HD
BRANCH  44  48
ATOM     48  C   UNL     1      -5.848  -5.351   1.996  0.00  0.00    +0.113 C 
BRANCH  48  49
ATOM     49  C   UNL     1      -7.045  -5.819   1.165  0.00  0.00    +0.114 C 
BRANCH  49  51
ATOM     50  N   UNL     1      -8.644  -4.765  -0.349  0.00  0.00    -0.314 N 
ATOM     51  C   UNL     1      -7.843  -4.606   0.766  0.00  0.00    +0.215 C 
ATOM     52  O   UNL     1      -7.813  -3.547   1.391  0.00  0.00    -0.276 OA
ATOM     53  H   UNL     1      -8.704  -5.673  -0.801  0.00  0.00    +0.149 HD
BRANCH  50  54
ATOM     54  C   UNL     1      -9.423  -3.658  -0.869  0.00  0.00    +0.115 C 
BRANCH  54  55
ATOM     55  C   UNL     1     -10.090  -3.906  -2.218  0.00  0.00    +0.096 C 
BRANCH  55  56
ATOM     56  S   UNL     1      -8.918  -3.993  -3.614  0.00  0.00    -0.087 S 
BRANCH  56  57
ATOM     57  C   UNL     1      -8.136  -5.537  -3.276  0.00  0.00    +0.189 C 
ATOM     58  O   UNL     1      -8.664  -6.370  -2.549  0.00  0.00    -0.285 OA
BRANCH  57  59
ATOM     59  C   UNL     1      -6.788  -5.696  -3.950  0.00  0.00    +0.086 C 
BRANCH  59  60
ATOM     60  C   UNL     1      -6.013  -6.934  -3.503  0.00  0.00    +0.005 C 
ATOM     61  C   UNL     1      -6.621  -8.246  -3.976  0.00  0.00    +0.004 C 
ENDBRANCH  59  60
ENDBRANCH  57  59
ENDBRANCH  56  57
ENDBRANCH  55  56
ENDBRANCH  54  55
ENDBRANCH  50  54
ENDBRANCH  49  51
ENDBRANCH  48  49
ENDBRANCH  44  48
ENDBRANCH  43  45
BRANCH  43  62
ATOM     62  O   UNL     1      -3.828  -8.952   3.089  0.00  0.00    -0.382 OA
ATOM     63  H   UNL     1      -3.465  -8.992   3.985  0.00  0.00    +0.210 HD
ENDBRANCH  43  62
ENDBRANCH  40  43
ENDBRANCH  39  40
ENDBRANCH  38  39
ENDBRANCH  34  38
ENDBRANCH  33  34
ENDBRANCH   1  33
TORSDOF 28
