REMARK  Name = 
REMARK  7 active torsions:
REMARK  status: ('A' for Active; 'I' for Inactive)
REMARK    1  A    between atoms: C_2  and  C_3
REMARK    2  A    between atoms: C_3  and  C_4
REMARK    3  A    between atoms: C_3  and  O_6
REMARK    4  A    between atoms: C_4  and  O_5
REMARK    5  A    between atoms: O_5  and  P_7
REMARK    6  A    between atoms: P_7  and  O_8
REMARK    7  A    between atoms: P_7  and  O_10
REMARK                            x       y       z     vdW  Elec       q    Type
REMARK                         _______ _______ _______ _____ _____    ______ ____
ROOT
ATOM      1  O   UNL     1       1.304   2.552   0.854  0.00  0.00    -0.284 OA
ENDROOT
BRANCH   1   2
ATOM      2  P   UNL     1       0.864   3.559   2.190  0.00  0.00    +0.472 P 
ATOM      3  O   UNL     1      -0.611   3.386   1.847  0.00  0.00    -0.228 OA
BRANCH   2   4
ATOM      4  O   UNL     1       1.312   4.891   1.372  0.00  0.00    -0.303 OA
ATOM      5  H   UNL     1       0.503   5.186   0.904  0.00  0.00    +0.222 HD
ENDBRANCH   2   4
BRANCH   2   6
ATOM      6  O   UNL     1       0.425   4.566   3.526  0.00  0.00    -0.303 OA
ATOM      7  H   UNL     1       1.223   4.872   3.990  0.00  0.00    +0.222 HD
ENDBRANCH   2   6
ENDBRANCH   1   2
BRANCH   1   8
ATOM      8  C   UNL     1       2.683   2.192   0.879  0.00  0.00    +0.211 C 
BRANCH   8   9
ATOM      9  C   UNL     1       3.023   1.292  -0.310  0.00  0.00    +0.203 C 
BRANCH   9  11
ATOM     10  O   UNL     1       5.227   1.109   0.698  0.00  0.00    -0.298 OA
ATOM     11  C   UNL     1       4.463   0.826  -0.223  0.00  0.00    +0.256 C 
ENDBRANCH   9  11
BRANCH   9  12
ATOM     12  O   UNL     1       2.851   1.964  -1.557  0.00  0.00    -0.382 OA
ATOM     13  H   UNL     1       3.082   2.901  -1.436  0.00  0.00    +0.210 HD
ENDBRANCH   9  12
ENDBRANCH   8   9
ENDBRANCH   1   8
TORSDOF 7
