REMARK  Name = 
REMARK  4 active torsions:
REMARK  status: ('A' for Active; 'I' for Inactive)
REMARK    1  A    between atoms: C_1  and  C_2
REMARK    2  A    between atoms: C_1  and  C_3
REMARK    3  A    between atoms: C_2  and  O_5
REMARK    4  A    between atoms: C_3  and  O_6
REMARK                            x       y       z     vdW  Elec       q    Type
REMARK                         _______ _______ _______ _____ _____    ______ ____
ROOT
ATOM      1  C   UNL     1       1.050   0.107   0.121  0.00  0.00    +0.184 C 
ATOM      2  O   UNL     1       2.254   0.322   0.295  0.00  0.00    -0.293 OA
ENDROOT
BRANCH   1   3
ATOM      3  C   UNL     1       0.327   0.569  -1.138  0.00  0.00    +0.232 C 
BRANCH   3   4
ATOM      4  O   UNL     1       1.209   1.096  -2.113  0.00  0.00    -0.387 OA
ATOM      5  H   UNL     1       1.993   1.428  -1.630  0.00  0.00    +0.210 HD
ENDBRANCH   3   4
ENDBRANCH   1   3
BRANCH   1   6
ATOM      6  C   UNL     1       0.206  -0.634   1.146  0.00  0.00    +0.232 C 
BRANCH   6   7
ATOM      7  O   UNL     1       0.782  -0.622   2.441  0.00  0.00    -0.387 OA
ATOM      8  H   UNL     1       1.740  -0.777   2.321  0.00  0.00    +0.210 HD
ENDBRANCH   6   7
ENDBRANCH   1   6
TORSDOF 4
