REMARK  Name = 
REMARK  4 active torsions:
REMARK  status: ('A' for Active; 'I' for Inactive)
REMARK    1  A    between atoms: C_1  and  C_2
REMARK    2  A    between atoms: C_1  and  O_3
REMARK    3  A    between atoms: C_5  and  C_6
REMARK    4  A    between atoms: C_6  and  O_7
REMARK                            x       y       z     vdW  Elec       q    Type
REMARK                         _______ _______ _______ _____ _____    ______ ____
ROOT
ATOM      1  C   UNL     1       0.203   0.405   1.305  0.00  0.00    +0.098 C 
ATOM      2  C   UNL     1       0.865   0.733   2.426  0.00  0.00    +0.098 C 
ENDROOT
BRANCH   1   3
ATOM      3  C   UNL     1       0.996   0.057   0.117  0.00  0.00    +0.330 C 
ATOM      4  O   UNL     1       2.215   0.050   0.091  0.00  0.00    -0.246 OA
BRANCH   3   5
ATOM      5  O   UNL     1       0.230  -0.253  -0.944  0.00  0.00    -0.478 OA
ATOM      6  H   UNL     1      -0.733  -0.211  -0.801  0.00  0.00    +0.295 HD
ENDBRANCH   3   5
ENDBRANCH   1   3
BRANCH   2   7
ATOM      7  C   UNL     1       0.102   1.086   3.632  0.00  0.00    +0.330 C 
ATOM      8  O   UNL     1      -1.115   1.102   3.690  0.00  0.00    -0.246 OA
BRANCH   7   9
ATOM      9  O   UNL     1       0.904   1.389   4.669  0.00  0.00    -0.478 OA
ATOM     10  H   UNL     1       1.862   1.339   4.497  0.00  0.00    +0.295 HD
ENDBRANCH   7   9
ENDBRANCH   2   7
TORSDOF 4
