REMARK  Name = 
REMARK  9 active torsions:
REMARK  status: ('A' for Active; 'I' for Inactive)
REMARK    1  A    between atoms: C_1  and  O_4
REMARK    2  A    between atoms: C_3  and  O_7
REMARK    3  A    between atoms: O_4  and  P_8
REMARK    4  A    between atoms: C_5  and  C_10
REMARK    5  A    between atoms: C_6  and  O_11
REMARK    6  A    between atoms: P_8  and  O_12
REMARK    7  A    between atoms: P_8  and  O_13
REMARK    8  A    between atoms: C_9  and  O_15
REMARK    9  A    between atoms: C_10  and  O_16
REMARK                            x       y       z     vdW  Elec       q    Type
REMARK                         _______ _______ _______ _____ _____    ______ ____
ROOT
ATOM      1  C   UNL     1       0.964   1.496  -0.157  0.00  0.00    +0.293 C 
ATOM      2  O   UNL     1      -0.237   2.065   0.360  0.00  0.00    -0.340 OA
ATOM      3  C   UNL     1       1.111   0.048   0.339  0.00  0.00    +0.202 C 
ATOM      4  C   UNL     1      -1.415   1.392  -0.123  0.00  0.00    +0.178 C 
ATOM      5  C   UNL     1      -0.112  -0.764  -0.102  0.00  0.00    +0.179 C 
ATOM      6  C   UNL     1      -1.425  -0.080   0.323  0.00  0.00    +0.177 C 
ENDROOT
BRANCH   3   7
ATOM      7  O   UNL     1       2.308  -0.560  -0.162  0.00  0.00    -0.384 OA
ATOM      8  H   UNL     1       2.112  -1.509  -0.289  0.00  0.00    +0.210 HD
ENDBRANCH   3   7
BRANCH   5   9
ATOM      9  O   UNL     1      -0.013  -2.098   0.423  0.00  0.00    -0.386 OA
ATOM     10  H   UNL     1      -0.163  -2.058   1.386  0.00  0.00    +0.210 HD
ENDBRANCH   5   9
BRANCH   6  11
ATOM     11  O   UNL     1      -2.555  -0.759  -0.238  0.00  0.00    -0.386 OA
ATOM     12  H   UNL     1      -2.266  -1.272  -1.012  0.00  0.00    +0.210 HD
ENDBRANCH   6  11
BRANCH   1  13
ATOM     13  O   UNL     1       0.951   1.498  -1.569  0.00  0.00    -0.254 OA
BRANCH  13  14
ATOM     14  P   UNL     1       1.404   2.840  -2.296  0.00  0.00    +0.475 P 
ATOM     15  O   UNL     1       0.649   4.091  -2.049  0.00  0.00    -0.227 OA
BRANCH  14  16
ATOM     16  O   UNL     1       2.989   2.876  -2.142  0.00  0.00    -0.303 OA
ATOM     17  H   UNL     1       3.403   3.040  -3.012  0.00  0.00    +0.222 HD
ENDBRANCH  14  16
BRANCH  14  18
ATOM     18  O   UNL     1       1.311   2.356  -3.816  0.00  0.00    -0.303 OA
ATOM     19  H   UNL     1       0.378   2.274  -4.084  0.00  0.00    +0.222 HD
ENDBRANCH  14  18
ENDBRANCH  13  14
ENDBRANCH   1  13
BRANCH   4  20
ATOM     20  C   UNL     1      -2.633   2.174   0.379  0.00  0.00    +0.190 C 
BRANCH  20  21
ATOM     21  O   UNL     1      -2.613   2.281   1.800  0.00  0.00    -0.392 OA
ATOM     22  H   UNL     1      -1.775   2.732   2.015  0.00  0.00    +0.210 HD
ENDBRANCH  20  21
ENDBRANCH   4  20
TORSDOF 9
