REMARK  Name = 
REMARK  4 active torsions:
REMARK  status: ('A' for Active; 'I' for Inactive)
REMARK    1  A    between atoms: C_1  and  C_2
REMARK    2  A    between atoms: C_1  and  C_3
REMARK    3  A    between atoms: C_2  and  C_5
REMARK    4  A    between atoms: C_5  and  O_7
REMARK                            x       y       z     vdW  Elec       q    Type
REMARK                         _______ _______ _______ _____ _____    ______ ____
ROOT
ATOM      1  C   UNL     1       0.482   1.214   0.342  0.00  0.00    +0.194 C 
ENDROOT
BRANCH   1   2
ATOM      2  C   UNL     1       1.204  -0.049  -0.042  0.00  0.00    +0.141 C 
ATOM      3  C   UNL     1       2.095  -0.025  -1.257  0.00  0.00    +0.086 C 
ATOM      4  O   UNL     1       1.001  -1.101   0.569  0.00  0.00    -0.297 OA
ENDBRANCH   1   2
BRANCH   1   5
ATOM      5  C   UNL     1       1.388   2.355   0.691  0.00  0.00    +0.312 C 
ATOM      6  O   UNL     1       2.607   2.322   0.656  0.00  0.00    -0.251 OA
BRANCH   5   7
ATOM      7  O   UNL     1       0.707   3.474   1.034  0.00  0.00    -0.480 OA
ATOM      8  H   UNL     1      -0.265   3.379   1.038  0.00  0.00    +0.295 HD
ENDBRANCH   5   7
ENDBRANCH   1   5
TORSDOF 3
