REMARK  Name = 
REMARK  4 active torsions:
REMARK  status: ('A' for Active; 'I' for Inactive)
REMARK    1  A    between atoms: C_1  and  S_2
REMARK    2  A    between atoms: C_1  and  C_3
REMARK    3  A    between atoms: S_2  and  O_4
REMARK    4  A    between atoms: C_3  and  N_5
REMARK                            x       y       z     vdW  Elec       q    Type
REMARK                         _______ _______ _______ _____ _____    ______ ____
ROOT
ATOM      1  C   UNL     1       1.072   0.028   0.056  0.00  0.00    +0.212 C 
ENDROOT
BRANCH   1   2
ATOM      2  S   UNL     1       0.491  -1.063   1.343  0.00  0.00    +0.081 S 
ATOM      3  O   UNL     1       0.770  -2.433   0.977  0.00  0.00    -0.147 OA
ATOM      4  O   UNL     1       0.817  -0.521   2.639  0.00  0.00    -0.147 OA
BRANCH   2   5
ATOM      5  O   UNL     1      -1.092  -0.865   1.096  0.00  0.00    -0.254 OA
ATOM      6  H   UNL     1      -1.473  -1.734   0.843  0.00  0.00    +0.244 HD
ENDBRANCH   2   5
ENDBRANCH   1   2
BRANCH   1   7
ATOM      7  C   UNL     1       2.590   0.043   0.025  0.00  0.00    +0.103 C 
BRANCH   7   8
ATOM      8  N   UNL     1       3.080   0.929  -1.033  0.00  0.00    -0.328 NA
ATOM      9  H   UNL     1       2.819   0.565  -1.949  0.00  0.00    +0.118 HD
ATOM     10  H   UNL     1       4.101   0.941  -1.018  0.00  0.00    +0.118 HD
ENDBRANCH   7   8
ENDBRANCH   1   7
TORSDOF 4
