REMARK  Name = 
REMARK  10 active torsions:
REMARK  status: ('A' for Active; 'I' for Inactive)
REMARK    1  A    between atoms: C_1  and  C_4
REMARK    2  A    between atoms: C_3  and  O_7
REMARK    3  A    between atoms: C_4  and  O_8
REMARK    4  A    between atoms: C_5  and  C_9
REMARK    5  A    between atoms: C_5  and  O_10
REMARK    6  A    between atoms: C_6  and  O_11
REMARK    7  A    between atoms: O_8  and  P_12
REMARK    8  A    between atoms: C_9  and  O_13
REMARK    9  A    between atoms: P_12  and  O_14
REMARK   10  A    between atoms: P_12  and  O_15
REMARK                            x       y       z     vdW  Elec       q    Type
REMARK                         _______ _______ _______ _____ _____    ______ ____
ROOT
ATOM      1  C   UNL     1      -0.731  -0.999  -0.129  0.00  0.00    +0.179 C 
ATOM      2  O   UNL     1       0.709  -0.976   0.057  0.00  0.00    -0.336 OA
ATOM      3  C   UNL     1      -1.200   0.381   0.347  0.00  0.00    +0.179 C 
ATOM      4  C   UNL     1       1.158   0.395   0.059  0.00  0.00    +0.220 C 
ATOM      5  C   UNL     1      -0.078   1.294  -0.125  0.00  0.00    +0.207 C 
ENDROOT
BRANCH   3   6
ATOM      6  O   UNL     1      -1.285   0.452   1.777  0.00  0.00    -0.386 OA
ATOM      7  H   UNL     1      -0.936  -0.372   2.163  0.00  0.00    +0.210 HD
ENDBRANCH   3   6
BRANCH   4   8
ATOM      8  O   UNL     1       2.033   0.572  -1.055  0.00  0.00    -0.361 OA
ATOM      9  H   UNL     1       2.883   0.201  -0.742  0.00  0.00    +0.213 HD
ENDBRANCH   4   8
BRANCH   5  10
ATOM     10  O   UNL     1      -0.279   1.631  -1.507  0.00  0.00    -0.384 OA
ATOM     11  H   UNL     1       0.619   1.584  -1.903  0.00  0.00    +0.210 HD
ENDBRANCH   5  10
BRANCH   1  12
ATOM     12  C   UNL     1      -1.090  -1.271  -1.595  0.00  0.00    +0.206 C 
BRANCH  12  13
ATOM     13  O   UNL     1      -0.683  -2.579  -2.001  0.00  0.00    -0.284 OA
BRANCH  13  14
ATOM     14  P   UNL     1      -1.165  -2.956  -3.619  0.00  0.00    +0.472 P 
ATOM     15  O   UNL     1      -1.596  -3.292  -5.068  0.00  0.00    -0.228 OA
BRANCH  14  16
ATOM     16  O   UNL     1      -0.406  -4.380  -3.405  0.00  0.00    -0.303 OA
ATOM     17  H   UNL     1       0.496  -4.374  -3.768  0.00  0.00    +0.222 HD
ENDBRANCH  14  16
BRANCH  14  18
ATOM     18  O   UNL     1      -2.598  -3.395  -2.962  0.00  0.00    -0.303 OA
ATOM     19  H   UNL     1      -3.330  -3.063  -3.507  0.00  0.00    +0.222 HD
ENDBRANCH  14  18
ENDBRANCH  13  14
ENDBRANCH  12  13
ENDBRANCH   1  12
BRANCH   4  20
ATOM     20  C   UNL     1       1.910   0.685   1.370  0.00  0.00    +0.223 C 
BRANCH  20  21
ATOM     21  O   UNL     1       3.056  -0.171   1.463  0.00  0.00    -0.390 OA
ATOM     22  H   UNL     1       2.710  -1.081   1.535  0.00  0.00    +0.210 HD
ENDBRANCH  20  21
ENDBRANCH   4  20
TORSDOF 10
