REMARK  Name = 
REMARK  10 active torsions:
REMARK  status: ('A' for Active; 'I' for Inactive)
REMARK    1  A    between atoms: C_1  and  C_4
REMARK    2  A    between atoms: C_3  and  O_7
REMARK    3  A    between atoms: C_4  and  O_8
REMARK    4  A    between atoms: C_5  and  C_9
REMARK    5  A    between atoms: C_5  and  O_10
REMARK    6  A    between atoms: C_6  and  O_11
REMARK    7  A    between atoms: O_8  and  P_12
REMARK    8  A    between atoms: C_9  and  O_13
REMARK    9  A    between atoms: P_12  and  O_14
REMARK   10  A    between atoms: P_12  and  O_15
REMARK                            x       y       z     vdW  Elec       q    Type
REMARK                         _______ _______ _______ _____ _____    ______ ____
ROOT
ATOM      1  C   UNL     1      -0.702  -0.975  -0.149  0.00  0.00    +0.179 C 
ATOM      2  O   UNL     1       0.731  -0.957   0.066  0.00  0.00    -0.336 OA
ATOM      3  C   UNL     1      -1.186   0.407   0.312  0.00  0.00    +0.179 C 
ATOM      4  C   UNL     1       1.179   0.409   0.069  0.00  0.00    +0.220 C 
ATOM      5  C   UNL     1      -0.052   1.317  -0.129  0.00  0.00    +0.207 C 
ENDROOT
BRANCH   3   6
ATOM      6  O   UNL     1      -1.302   0.481   1.738  0.00  0.00    -0.386 OA
ATOM      7  H   UNL     1      -0.996  -0.362   2.133  0.00  0.00    +0.210 HD
ENDBRANCH   3   6
BRANCH   4   8
ATOM      8  O   UNL     1       2.078   0.587  -1.028  0.00  0.00    -0.361 OA
ATOM      9  H   UNL     1       2.920   0.205  -0.706  0.00  0.00    +0.213 HD
ENDBRANCH   4   8
BRANCH   5  10
ATOM     10  O   UNL     1      -0.217   1.669  -1.513  0.00  0.00    -0.384 OA
ATOM     11  H   UNL     1       0.690   1.617  -1.893  0.00  0.00    +0.210 HD
ENDBRANCH   5  10
BRANCH   1  12
ATOM     12  C   UNL     1      -1.034  -1.245  -1.625  0.00  0.00    +0.206 C 
BRANCH  12  13
ATOM     13  O   UNL     1      -0.575  -2.534  -2.036  0.00  0.00    -0.284 OA
BRANCH  13  14
ATOM     14  P   UNL     1      -1.004  -2.876  -3.677  0.00  0.00    +0.472 P 
ATOM     15  O   UNL     1      -1.389  -3.182  -5.145  0.00  0.00    -0.228 OA
BRANCH  14  16
ATOM     16  O   UNL     1      -0.300  -4.326  -3.415  0.00  0.00    -0.303 OA
ATOM     17  H   UNL     1      -0.799  -4.791  -2.720  0.00  0.00    +0.222 HD
ENDBRANCH  14  16
BRANCH  14  18
ATOM     18  O   UNL     1      -2.481  -3.342  -3.149  0.00  0.00    -0.303 OA
ATOM     19  H   UNL     1      -2.905  -3.735  -3.941  0.00  0.00    +0.222 HD
ENDBRANCH  14  18
ENDBRANCH  13  14
ENDBRANCH  12  13
ENDBRANCH   1  12
BRANCH   4  20
ATOM     20  C   UNL     1       1.912   0.702   1.394  0.00  0.00    +0.223 C 
BRANCH  20  21
ATOM     21  O   UNL     1       3.059  -0.150   1.507  0.00  0.00    -0.390 OA
ATOM     22  H   UNL     1       2.717  -1.065   1.542  0.00  0.00    +0.210 HD
ENDBRANCH  20  21
ENDBRANCH   4  20
TORSDOF 10
