REMARK  Name = 
REMARK  8 active torsions:
REMARK  status: ('A' for Active; 'I' for Inactive)
REMARK    1  A    between atoms: O_1  and  C_2
REMARK    2  A    between atoms: C_2  and  C_3
REMARK    3  A    between atoms: C_3  and  C_4
REMARK    4  A    between atoms: C_3  and  O_6
REMARK    5  A    between atoms: C_4  and  O_5
REMARK    6  A    between atoms: O_5  and  P_7
REMARK    7  A    between atoms: P_7  and  O_8
REMARK    8  A    between atoms: P_7  and  O_10
REMARK                            x       y       z     vdW  Elec       q    Type
REMARK                         _______ _______ _______ _____ _____    ______ ____
ROOT
ATOM      1  C   UNL     1       2.496   0.158  -0.029  0.00  0.00    +0.206 C 
ENDROOT
BRANCH   1   2
ATOM      2  C   UNL     1       3.021   1.384  -0.777  0.00  0.00    +0.166 C 
BRANCH   2   3
ATOM      3  O   UNL     1       3.207   1.040  -2.157  0.00  0.00    -0.387 OA
ATOM      4  H   UNL     1       3.750   0.229  -2.159  0.00  0.00    +0.210 HD
ENDBRANCH   2   3
BRANCH   2   5
ATOM      5  C   UNL     1       4.331   1.918  -0.191  0.00  0.00    +0.189 C 
BRANCH   5   6
ATOM      6  O   UNL     1       4.131   2.381   1.138  0.00  0.00    -0.392 OA
ATOM      7  H   UNL     1       5.011   2.466   1.547  0.00  0.00    +0.210 HD
ENDBRANCH   5   6
ENDBRANCH   2   5
ENDBRANCH   1   2
BRANCH   1   8
ATOM      8  O   UNL     1       3.446  -0.916  -0.096  0.00  0.00    -0.284 OA
BRANCH   8   9
ATOM      9  P   UNL     1       2.894  -2.326   0.740  0.00  0.00    +0.472 P 
ATOM     10  O   UNL     1       3.166  -1.657   2.084  0.00  0.00    -0.228 OA
BRANCH   9  11
ATOM     11  O   UNL     1       4.261  -3.111   0.336  0.00  0.00    -0.303 OA
ATOM     12  H   UNL     1       4.298  -3.417  -0.583  0.00  0.00    +0.222 HD
ENDBRANCH   9  11
BRANCH   9  13
ATOM     13  O   UNL     1       2.342  -3.736   1.576  0.00  0.00    -0.303 OA
ATOM     14  H   UNL     1       2.347  -4.515   0.999  0.00  0.00    +0.222 HD
ENDBRANCH   9  13
ENDBRANCH   8   9
ENDBRANCH   1   8
TORSDOF 8
