REMARK  Name = 
REMARK  9 active torsions:
REMARK  status: ('A' for Active; 'I' for Inactive)
REMARK    1  A    between atoms: P_1  and  O_2
REMARK    2  A    between atoms: P_1  and  O_3
REMARK    3  A    between atoms: P_1  and  O_4
REMARK    4  A    between atoms: O_2  and  C_6
REMARK    5  A    between atoms: C_6  and  C_7
REMARK    6  A    between atoms: C_8  and  O_11
REMARK    7  A    between atoms: C_10  and  O_14
REMARK    8  A    between atoms: C_12  and  O_15
REMARK    9  A    between atoms: C_13  and  O_16
REMARK                            x       y       z     vdW  Elec       q    Type
REMARK                         _______ _______ _______ _____ _____    ______ ____
ROOT
ATOM      1  C   UNL     1       0.966  -0.519   3.886  0.00  0.00    +0.179 C 
ATOM      2  C   UNL     1      -0.066   0.566   4.202  0.00  0.00    +0.177 C 
ATOM      3  O   UNL     1       2.273  -0.108   4.333  0.00  0.00    -0.341 OA
ATOM      4  C   UNL     1       0.385   1.970   3.744  0.00  0.00    +0.179 C 
ATOM      5  C   UNL     1       2.771   1.052   3.674  0.00  0.00    +0.279 C 
ATOM      6  C   UNL     1       1.877   2.259   4.009  0.00  0.00    +0.201 C 
ENDROOT
BRANCH   2   7
ATOM      7  O   UNL     1      -0.291   0.589   5.622  0.00  0.00    -0.386 OA
ATOM      8  H   UNL     1       0.493   0.220   6.068  0.00  0.00    +0.210 HD
ENDBRANCH   2   7
BRANCH   4   9
ATOM      9  O   UNL     1       0.030   2.143   2.366  0.00  0.00    -0.386 OA
ATOM     10  H   UNL     1       0.784   1.974   1.780  0.00  0.00    +0.210 HD
ENDBRANCH   4   9
BRANCH   5  11
ATOM     11  O   UNL     1       4.094   1.293   4.133  0.00  0.00    -0.365 OA
ATOM     12  H   UNL     1       4.013   1.908   4.886  0.00  0.00    +0.213 HD
ENDBRANCH   5  11
BRANCH   6  13
ATOM     13  O   UNL     1       2.095   2.587   5.397  0.00  0.00    -0.384 OA
ATOM     14  H   UNL     1       1.995   1.761   5.908  0.00  0.00    +0.210 HD
ENDBRANCH   6  13
BRANCH   1  15
ATOM     15  C   UNL     1       0.930  -0.971   2.429  0.00  0.00    +0.206 C 
BRANCH  15  16
ATOM     16  O   UNL     1       1.812  -2.074   2.319  0.00  0.00    -0.284 OA
BRANCH  16  17
ATOM     17  P   UNL     1       1.980  -2.756   0.889  0.00  0.00    +0.472 P 
ATOM     18  O   UNL     1       2.578  -1.944  -0.195  0.00  0.00    -0.228 OA
BRANCH  17  19
ATOM     19  O   UNL     1       0.539  -3.357   0.569  0.00  0.00    -0.303 OA
ATOM     20  H   UNL     1       0.581  -3.899  -0.241  0.00  0.00    +0.222 HD
ENDBRANCH  17  19
BRANCH  17  21
ATOM     21  O   UNL     1       2.737  -4.097   1.300  0.00  0.00    -0.303 OA
ATOM     22  H   UNL     1       2.350  -4.434   2.127  0.00  0.00    +0.222 HD
ENDBRANCH  17  21
ENDBRANCH  16  17
ENDBRANCH  15  16
ENDBRANCH   1  15
TORSDOF 9
