REMARK  Name = 
REMARK  6 active torsions:
REMARK  status: ('A' for Active; 'I' for Inactive)
REMARK    1  A    between atoms: CA_1  and  CB_2
REMARK    2  A    between atoms: CA_1  and  C_3
REMARK    3  A    between atoms: CA_1  and  N_4
REMARK    4  A    between atoms: CB_2  and  CG1_5
REMARK    5  A    between atoms: CB_2  and  CG2_6
REMARK    6  A    between atoms: C_3  and  O_7
REMARK                            x       y       z     vdW  Elec       q    Type
REMARK                         _______ _______ _______ _____ _____    ______ ____
ROOT
ATOM      1  CA  VAL A   1       1.048  -0.120  -0.137  0.00  0.00    +0.163 C 
ENDROOT
BRANCH   1   2
ATOM      2  CB  VAL A   1       0.526   1.311   0.160  0.00  0.00    +0.010 C 
ATOM      3  CG1 VAL A   1      -1.006   1.387   0.203  0.00  0.00    +0.009 C 
ATOM      4  CG2 VAL A   1       1.054   1.839   1.505  0.00  0.00    +0.009 C 
ENDBRANCH   1   2
BRANCH   1   5
ATOM      5  N   VAL A   1       2.528  -0.141  -0.063  0.00  0.00    -0.318 NA
ATOM      6  H1  VAL A   1       2.982   0.566  -0.636  0.00  0.00    +0.119 HD
ATOM      7  H2  VAL A   1       2.934  -1.070  -0.116  0.00  0.00    +0.119 HD
ENDBRANCH   1   5
BRANCH   1   8
ATOM      8  C   VAL A   1       0.560  -0.670  -1.501  0.00  0.00    +0.322 C 
ATOM      9  OXT VAL A   1      -0.612  -0.856  -1.801  0.00  0.00    -0.249 OA
BRANCH   8  10
ATOM     10  O   VAL A   1       1.561  -0.974  -2.362  0.00  0.00    -0.480 OA
ATOM     11  H   VAL A   1       2.425  -0.797  -1.949  0.00  0.00    +0.295 HD
ENDBRANCH   8  10
ENDBRANCH   1   8
TORSDOF 4
