REMARK  Name = 
REMARK  11 active torsions:
REMARK  status: ('A' for Active; 'I' for Inactive)
REMARK    1  A    between atoms: P_1  and  O_2
REMARK    2  A    between atoms: P_1  and  O_3
REMARK    3  A    between atoms: P_1  and  O_4
REMARK    4  A    between atoms: O_2  and  C_6
REMARK    5  A    between atoms: C_6  and  C_7
REMARK    6  A    between atoms: C_7  and  C_9
REMARK    7  A    between atoms: C_7  and  O_10
REMARK    8  A    between atoms: C_9  and  O_11
REMARK    9  A    between atoms: O_11  and  P_12
REMARK   10  A    between atoms: P_12  and  O_13
REMARK   11  A    between atoms: P_12  and  O_14
REMARK                            x       y       z     vdW  Elec       q    Type
REMARK                         _______ _______ _______ _____ _____    ______ ____
ROOT
ATOM      1  C   UNL     1       1.022   0.909  -2.751  0.00  0.00    +0.249 C 
ENDROOT
BRANCH   1   2
ATOM      2  C   UNL     1       0.940  -0.614  -2.566  0.00  0.00    +0.346 C 
ATOM      3  O   UNL     1      -0.088  -1.220  -2.284  0.00  0.00    -0.247 OA
BRANCH   2   4
ATOM      4  O   UNL     1       2.048  -1.250  -3.010  0.00  0.00    -0.369 OA
BRANCH   4   5
ATOM      5  P   UNL     1       1.804  -2.560  -3.977  0.00  0.00    +0.530 P 
ATOM      6  O   UNL     1       2.260  -3.643  -2.969  0.00  0.00    -0.216 OA
BRANCH   5   7
ATOM      7  O   UNL     1       3.203  -2.525  -4.825  0.00  0.00    -0.293 OA
ATOM      8  H   UNL     1       3.195  -3.085  -5.617  0.00  0.00    +0.223 HD
ENDBRANCH   5   7
BRANCH   5   9
ATOM      9  O   UNL     1       1.295  -1.350  -5.104  0.00  0.00    -0.293 OA
ATOM     10  H   UNL     1       0.454  -1.629  -5.513  0.00  0.00    +0.223 HD
ENDBRANCH   5   9
ENDBRANCH   4   5
ENDBRANCH   2   4
ENDBRANCH   1   2
BRANCH   1  11
ATOM     11  O   UNL     1       1.074   1.630  -1.526  0.00  0.00    -0.379 OA
ATOM     12  H   UNL     1       0.262   2.167  -1.453  0.00  0.00    +0.211 HD
ENDBRANCH   1  11
BRANCH   1  13
ATOM     13  C   UNL     1      -0.237   1.290  -3.564  0.00  0.00    +0.215 C 
BRANCH  13  14
ATOM     14  O   UNL     1      -0.293   2.682  -3.905  0.00  0.00    -0.284 OA
BRANCH  14  15
ATOM     15  P   UNL     1      -1.708   3.061  -4.826  0.00  0.00    +0.472 P 
ATOM     16  O   UNL     1      -2.974   3.401  -5.650  0.00  0.00    -0.228 OA
BRANCH  15  17
ATOM     17  O   UNL     1      -2.518   3.045  -3.405  0.00  0.00    -0.303 OA
ATOM     18  H   UNL     1      -3.124   3.811  -3.451  0.00  0.00    +0.222 HD
ENDBRANCH  15  17
BRANCH  15  19
ATOM     19  O   UNL     1      -1.189   4.605  -4.673  0.00  0.00    -0.303 OA
ATOM     20  H   UNL     1      -0.302   4.717  -5.059  0.00  0.00    +0.222 HD
ENDBRANCH  15  19
ENDBRANCH  14  15
ENDBRANCH  13  14
ENDBRANCH   1  13
TORSDOF 11
