REMARK  Name = 
REMARK  8 active torsions:
REMARK  status: ('A' for Active; 'I' for Inactive)
REMARK    1  A    between atoms: C_1  and  C_4
REMARK    2  A    between atoms: C_2  and  C_6
REMARK    3  A    between atoms: C_4  and  O_8
REMARK    4  A    between atoms: C_5  and  O_10
REMARK    5  A    between atoms: O_8  and  P_12
REMARK    6  A    between atoms: C_9  and  C_13
REMARK    7  A    between atoms: P_12  and  O_14
REMARK    8  A    between atoms: P_12  and  O_15
REMARK                            x       y       z     vdW  Elec       q    Type
REMARK                         _______ _______ _______ _____ _____    ______ ____
ROOT
ATOM      1  C   UNL     1       1.522   0.934   0.004  0.00  0.00    +0.010 A 
ATOM      2  C   UNL     1       0.204   1.432  -0.003  0.00  0.00    +0.064 A 
ATOM      3  C   UNL     1       1.663  -0.449   0.050  0.00  0.00    +0.117 A 
ATOM      4  C   UNL     1      -0.880   0.533  -0.001  0.00  0.00    +0.148 A 
ATOM      5  N   UNL     1       0.643  -1.325   0.051  0.00  0.00    -0.256 NA
ATOM      6  C   UNL     1      -0.616  -0.832   0.021  0.00  0.00    +0.080 A 
ATOM      7  C   UNL     1      -1.701  -1.862   0.016  0.00  0.00    +0.069 C 
ENDROOT
BRANCH   2   8
ATOM      8  C   UNL     1      -0.092   2.899   0.004  0.00  0.00    +0.262 C 
ATOM      9  O   UNL     1      -1.246   3.306  -0.002  0.00  0.00    -0.296 OA
ENDBRANCH   2   8
BRANCH   4  10
ATOM     10  O   UNL     1      -2.184   0.951  -0.010  0.00  0.00    -0.504 OA
ATOM     11  H   UNL     1      -2.204   1.937  -0.004  0.00  0.00    +0.292 HD
ENDBRANCH   4  10
BRANCH   1  12
ATOM     12  C   UNL     1       2.762   1.776   0.083  0.00  0.00    +0.210 C 
BRANCH  12  13
ATOM     13  O   UNL     1       3.876   1.092  -0.517  0.00  0.00    -0.282 OA
BRANCH  13  14
ATOM     14  P   UNL     1       5.414   1.883  -0.548  0.00  0.00    +0.473 P 
ATOM     15  O   UNL     1       6.791   2.591  -0.575  0.00  0.00    -0.228 OA
BRANCH  14  16
ATOM     16  O   UNL     1       4.664   3.088  -1.365  0.00  0.00    -0.303 OA
ATOM     17  H   UNL     1       4.721   2.951  -2.326  0.00  0.00    +0.222 HD
ENDBRANCH  14  16
BRANCH  14  18
ATOM     18  O   UNL     1       5.108   2.387   0.979  0.00  0.00    -0.303 OA
ATOM     19  H   UNL     1       5.686   1.933   1.617  0.00  0.00    +0.222 HD
ENDBRANCH  14  18
ENDBRANCH  13  14
ENDBRANCH  12  13
ENDBRANCH   1  12
TORSDOF 7
