REMARK  Name = 
REMARK  5 active torsions:
REMARK  status: ('A' for Active; 'I' for Inactive)
REMARK    1  A    between atoms: C_1  and  C_2
REMARK    2  A    between atoms: C_1  and  C_3
REMARK    3  A    between atoms: C_2  and  C_4
REMARK    4  A    between atoms: C_3  and  N_5
REMARK    5  A    between atoms: C_4  and  N_6
REMARK                            x       y       z     vdW  Elec       q    Type
REMARK                         _______ _______ _______ _____ _____    ______ ____
ROOT
ATOM      1  C   UNL     1       1.081  -0.066  -0.029  0.00  0.00    +0.016 C 
ENDROOT
BRANCH   1   2
ATOM      2  C   UNL     1       0.552   0.407  -1.385  0.00  0.00    +0.016 C 
BRANCH   2   3
ATOM      3  C   UNL     1      -0.975   0.415  -1.408  0.00  0.00    +0.077 C 
BRANCH   3   4
ATOM      4  N   UNL     1      -1.457   0.870  -2.707  0.00  0.00    -0.330 NA
ATOM      5  H   UNL     1      -1.143   1.825  -2.875  0.00  0.00    +0.118 HD
ATOM      6  H   UNL     1      -2.475   0.903  -2.696  0.00  0.00    +0.118 HD
ENDBRANCH   3   4
ENDBRANCH   2   3
ENDBRANCH   1   2
BRANCH   1   7
ATOM      7  C   UNL     1       2.608  -0.077  -0.007  0.00  0.00    +0.077 C 
BRANCH   7   8
ATOM      8  N   UNL     1       3.090  -0.528   1.294  0.00  0.00    -0.330 NA
ATOM      9  H   UNL     1       2.777   0.116   2.019  0.00  0.00    +0.118 HD
ATOM     10  H   UNL     1       4.108  -0.497   1.305  0.00  0.00    +0.118 HD
ENDBRANCH   7   8
ENDBRANCH   1   7
TORSDOF 5
