MODEL 1
REMARK VINA RESULT:    -3.999      0.000      0.000
REMARK INTER + INTRA:          -4.349
REMARK INTER:                  -4.349
REMARK INTRA:                   0.000
REMARK UNBOUND:                 0.000
REMARK  Name = 
REMARK  3 active torsions:
REMARK  status: ('A' for Active; 'I' for Inactive)
REMARK    1  A    between atoms: C_1  and  C_2
REMARK    2  A    between atoms: C_2  and  C_3
REMARK    3  A    between atoms: C_3  and  O_4
REMARK                            x       y       z     vdW  Elec       q    Type
REMARK                         _______ _______ _______ _____ _____    ______ ____
ROOT
ATOM      1  C   UNL     1      15.428   9.620  -1.761  0.00  0.00    +0.372 C 
ATOM      2  O   UNL     1      15.935  10.629  -1.315  0.00  0.00    -0.242 OA
ENDROOT
BRANCH   1   4
ATOM      3  C   UNL     1      15.665   8.338   0.481  0.00  0.00    +0.099 C 
ATOM      4  C   UNL     1      15.190   8.353  -0.940  0.00  0.00    +0.236 C 
ATOM      5  O   UNL     1      14.623   7.417  -1.498  0.00  0.00    -0.285 OA
ENDBRANCH   1   4
BRANCH   1   6
ATOM      6  O   UNL     1      14.996   9.448  -3.025  0.00  0.00    -0.475 OA
ATOM      7  H   UNL     1      14.384  10.185  -3.263  0.00  0.00    +0.295 HD
ENDBRANCH   1   6
TORSDOF 2
ENDMDL
MODEL 2
REMARK VINA RESULT:    -3.863     48.785     49.514
REMARK INTER + INTRA:          -4.202
REMARK INTER:                  -4.202
REMARK INTRA:                   0.000
REMARK UNBOUND:                 0.000
REMARK  Name = 
REMARK  3 active torsions:
REMARK  status: ('A' for Active; 'I' for Inactive)
REMARK    1  A    between atoms: C_1  and  C_2
REMARK    2  A    between atoms: C_2  and  C_3
REMARK    3  A    between atoms: C_3  and  O_4
REMARK                            x       y       z     vdW  Elec       q    Type
REMARK                         _______ _______ _______ _____ _____    ______ ____
ROOT
ATOM      1  C   UNL     1     -30.926  -6.030   6.257  0.00  0.00    +0.372 C 
ATOM      2  O   UNL     1     -29.949  -5.719   5.607  0.00  0.00    -0.242 OA
ENDROOT
BRANCH   1   4
ATOM      3  C   UNL     1     -31.128  -3.685   7.346  0.00  0.00    +0.099 C 
ATOM      4  C   UNL     1     -31.616  -5.098   7.252  0.00  0.00    +0.236 C 
ATOM      5  O   UNL     1     -32.534  -5.566   7.921  0.00  0.00    -0.285 OA
ENDBRANCH   1   4
BRANCH   1   6
ATOM      6  O   UNL     1     -31.555  -7.220   6.214  0.00  0.00    -0.475 OA
ATOM      7  H   UNL     1     -32.159  -7.297   6.990  0.00  0.00    +0.295 HD
ENDBRANCH   1   6
TORSDOF 2
ENDMDL
MODEL 3
REMARK VINA RESULT:    -3.846     20.496     21.004
REMARK INTER + INTRA:          -4.183
REMARK INTER:                  -4.183
REMARK INTRA:                   0.000
REMARK UNBOUND:                 0.000
REMARK  Name = 
REMARK  3 active torsions:
REMARK  status: ('A' for Active; 'I' for Inactive)
REMARK    1  A    between atoms: C_1  and  C_2
REMARK    2  A    between atoms: C_2  and  C_3
REMARK    3  A    between atoms: C_3  and  O_4
REMARK                            x       y       z     vdW  Elec       q    Type
REMARK                         _______ _______ _______ _____ _____    ______ ____
ROOT
ATOM      1  C   UNL     1       4.776  -0.052 -16.894  0.00  0.00    +0.372 C 
ATOM      2  O   UNL     1       5.132  -1.211 -16.846  0.00  0.00    -0.242 OA
ENDROOT
BRANCH   1   4
ATOM      3  C   UNL     1       3.183   1.908 -16.303  0.00  0.00    +0.099 C 
ATOM      4  C   UNL     1       3.395   0.433 -16.457  0.00  0.00    +0.236 C 
ATOM      5  O   UNL     1       2.534  -0.421 -16.256  0.00  0.00    -0.285 OA
ENDBRANCH   1   4
BRANCH   1   6
ATOM      6  O   UNL     1       5.520   0.983 -17.331  0.00  0.00    -0.475 OA
ATOM      7  H   UNL     1       5.193   1.817 -16.916  0.00  0.00    +0.295 HD
ENDBRANCH   1   6
TORSDOF 2
ENDMDL
MODEL 4
REMARK VINA RESULT:    -3.650     35.288     36.000
REMARK INTER + INTRA:          -3.970
REMARK INTER:                  -3.970
REMARK INTRA:                   0.000
REMARK UNBOUND:                 0.000
REMARK  Name = 
REMARK  3 active torsions:
REMARK  status: ('A' for Active; 'I' for Inactive)
REMARK    1  A    between atoms: C_1  and  C_2
REMARK    2  A    between atoms: C_2  and  C_3
REMARK    3  A    between atoms: C_3  and  O_4
REMARK                            x       y       z     vdW  Elec       q    Type
REMARK                         _______ _______ _______ _____ _____    ______ ____
ROOT
ATOM      1  C   UNL     1      -4.084 -10.229 -25.254  0.00  0.00    +0.372 C 
ATOM      2  O   UNL     1      -4.566  -9.116 -25.194  0.00  0.00    -0.242 OA
ENDROOT
BRANCH   1   4
ATOM      3  C   UNL     1      -1.714  -9.810 -24.285  0.00  0.00    +0.099 C 
ATOM      4  C   UNL     1      -2.581 -10.503 -25.293  0.00  0.00    +0.236 C 
ATOM      5  O   UNL     1      -2.170 -11.279 -26.153  0.00  0.00    -0.285 OA
ENDBRANCH   1   4
BRANCH   1   6
ATOM      6  O   UNL     1      -4.773 -11.385 -25.295  0.00  0.00    -0.475 OA
ATOM      7  H   UNL     1      -4.167 -12.116 -25.564  0.00  0.00    +0.295 HD
ENDBRANCH   1   6
TORSDOF 2
ENDMDL
MODEL 5
REMARK VINA RESULT:    -3.643     18.413     19.123
REMARK INTER + INTRA:          -3.963
REMARK INTER:                  -3.963
REMARK INTRA:                   0.000
REMARK UNBOUND:                 0.000
REMARK  Name = 
REMARK  3 active torsions:
REMARK  status: ('A' for Active; 'I' for Inactive)
REMARK    1  A    between atoms: C_1  and  C_2
REMARK    2  A    between atoms: C_2  and  C_3
REMARK    3  A    between atoms: C_3  and  O_4
REMARK                            x       y       z     vdW  Elec       q    Type
REMARK                         _______ _______ _______ _____ _____    ______ ____
ROOT
ATOM      1  C   UNL     1       4.078   4.324 -15.604  0.00  0.00    +0.372 C 
ATOM      2  O   UNL     1       3.124   4.969 -15.991  0.00  0.00    -0.242 OA
ENDROOT
BRANCH   1   4
ATOM      3  C   UNL     1       3.686   1.833 -16.212  0.00  0.00    +0.099 C 
ATOM      4  C   UNL     1       4.567   3.043 -16.278  0.00  0.00    +0.236 C 
ATOM      5  O   UNL     1       5.661   3.081 -16.838  0.00  0.00    -0.285 OA
ENDBRANCH   1   4
BRANCH   1   6
ATOM      6  O   UNL     1       4.850   4.620 -14.541  0.00  0.00    -0.475 OA
ATOM      7  H   UNL     1       5.796   4.454 -14.770  0.00  0.00    +0.295 HD
ENDBRANCH   1   6
TORSDOF 2
ENDMDL
MODEL 6
REMARK VINA RESULT:    -3.619     44.254     44.962
REMARK INTER + INTRA:          -3.937
REMARK INTER:                  -3.937
REMARK INTRA:                   0.000
REMARK UNBOUND:                 0.000
REMARK  Name = 
REMARK  3 active torsions:
REMARK  status: ('A' for Active; 'I' for Inactive)
REMARK    1  A    between atoms: C_1  and  C_2
REMARK    2  A    between atoms: C_2  and  C_3
REMARK    3  A    between atoms: C_3  and  O_4
REMARK                            x       y       z     vdW  Elec       q    Type
REMARK                         _______ _______ _______ _____ _____    ______ ____
ROOT
ATOM      1  C   UNL     1     -27.345  -4.103   3.043  0.00  0.00    +0.372 C 
ATOM      2  O   UNL     1     -28.148  -3.745   3.881  0.00  0.00    -0.242 OA
ENDROOT
BRANCH   1   4
ATOM      3  C   UNL     1     -26.045  -6.263   2.432  0.00  0.00    +0.099 C 
ATOM      4  C   UNL     1     -27.334  -5.498   2.419  0.00  0.00    +0.236 C 
ATOM      5  O   UNL     1     -28.387  -5.911   1.939  0.00  0.00    -0.285 OA
ENDBRANCH   1   4
BRANCH   1   6
ATOM      6  O   UNL     1     -26.352  -3.352   2.532  0.00  0.00    -0.475 OA
ATOM      7  H   UNL     1     -25.888  -3.862   1.826  0.00  0.00    +0.295 HD
ENDBRANCH   1   6
TORSDOF 2
ENDMDL
MODEL 7
REMARK VINA RESULT:    -3.563     20.059     20.467
REMARK INTER + INTRA:          -3.875
REMARK INTER:                  -3.875
REMARK INTRA:                   0.000
REMARK UNBOUND:                 0.000
REMARK  Name = 
REMARK  3 active torsions:
REMARK  status: ('A' for Active; 'I' for Inactive)
REMARK    1  A    between atoms: C_1  and  C_2
REMARK    2  A    between atoms: C_2  and  C_3
REMARK    3  A    between atoms: C_3  and  O_4
REMARK                            x       y       z     vdW  Elec       q    Type
REMARK                         _______ _______ _______ _____ _____    ______ ____
ROOT
ATOM      1  C   UNL     1       4.206   3.718 -17.998  0.00  0.00    +0.372 C 
ATOM      2  O   UNL     1       4.703   4.396 -18.874  0.00  0.00    -0.242 OA
ENDROOT
BRANCH   1   4
ATOM      3  C   UNL     1       4.146   1.746 -16.315  0.00  0.00    +0.099 C 
ATOM      4  C   UNL     1       4.894   2.511 -17.363  0.00  0.00    +0.236 C 
ATOM      5  O   UNL     1       6.028   2.238 -17.752  0.00  0.00    -0.285 OA
ENDBRANCH   1   4
BRANCH   1   6
ATOM      6  O   UNL     1       2.992   3.909 -17.447  0.00  0.00    -0.475 OA
ATOM      7  H   UNL     1       3.051   3.769 -16.472  0.00  0.00    +0.295 HD
ENDBRANCH   1   6
TORSDOF 2
ENDMDL
MODEL 8
REMARK VINA RESULT:    -3.533     19.356     20.083
REMARK INTER + INTRA:          -3.843
REMARK INTER:                  -3.843
REMARK INTRA:                   0.000
REMARK UNBOUND:                 0.000
REMARK  Name = 
REMARK  3 active torsions:
REMARK  status: ('A' for Active; 'I' for Inactive)
REMARK    1  A    between atoms: C_1  and  C_2
REMARK    2  A    between atoms: C_2  and  C_3
REMARK    3  A    between atoms: C_3  and  O_4
REMARK                            x       y       z     vdW  Elec       q    Type
REMARK                         _______ _______ _______ _____ _____    ______ ____
ROOT
ATOM      1  C   UNL     1       4.958   4.109 -17.526  0.00  0.00    +0.372 C 
ATOM      2  O   UNL     1       5.067   4.722 -18.569  0.00  0.00    -0.242 OA
ENDROOT
BRANCH   1   4
ATOM      3  C   UNL     1       3.736   2.215 -16.242  0.00  0.00    +0.099 C 
ATOM      4  C   UNL     1       3.652   3.479 -17.043  0.00  0.00    +0.236 C 
ATOM      5  O   UNL     1       2.606   4.049 -17.342  0.00  0.00    -0.285 OA
ENDBRANCH   1   4
BRANCH   1   6
ATOM      6  O   UNL     1       5.945   3.882 -16.639  0.00  0.00    -0.475 OA
ATOM      7  H   UNL     1       6.673   4.531 -16.789  0.00  0.00    +0.295 HD
ENDBRANCH   1   6
TORSDOF 2
ENDMDL
MODEL 9
REMARK VINA RESULT:    -3.526     34.513     35.235
REMARK INTER + INTRA:          -3.836
REMARK INTER:                  -3.836
REMARK INTRA:                   0.000
REMARK UNBOUND:                 0.000
REMARK  Name = 
REMARK  3 active torsions:
REMARK  status: ('A' for Active; 'I' for Inactive)
REMARK    1  A    between atoms: C_1  and  C_2
REMARK    2  A    between atoms: C_2  and  C_3
REMARK    3  A    between atoms: C_3  and  O_4
REMARK                            x       y       z     vdW  Elec       q    Type
REMARK                         _______ _______ _______ _____ _____    ______ ____
ROOT
ATOM      1  C   UNL     1      -3.775  -9.879 -25.239  0.00  0.00    +0.372 C 
ATOM      2  O   UNL     1      -3.701 -11.061 -25.507  0.00  0.00    -0.242 OA
ENDROOT
BRANCH   1   4
ATOM      3  C   UNL     1      -1.744  -9.856 -23.626  0.00  0.00    +0.099 C 
ATOM      4  C   UNL     1      -2.672  -9.098 -24.525  0.00  0.00    +0.236 C 
ATOM      5  O   UNL     1      -2.612  -7.888 -24.732  0.00  0.00    -0.285 OA
ENDBRANCH   1   4
BRANCH   1   6
ATOM      6  O   UNL     1      -4.816  -9.071 -25.518  0.00  0.00    -0.475 OA
ATOM      7  H   UNL     1      -4.859  -8.921 -26.493  0.00  0.00    +0.295 HD
ENDBRANCH   1   6
TORSDOF 2
ENDMDL
