REMARK  Name = 
REMARK  3 active torsions:
REMARK  status: ('A' for Active; 'I' for Inactive)
REMARK    1  A    between atoms: C_1  and  C_2
REMARK    2  A    between atoms: C_2  and  C_3
REMARK    3  A    between atoms: C_3  and  O_4
REMARK                            x       y       z     vdW  Elec       q    Type
REMARK                         _______ _______ _______ _____ _____    ______ ____
ROOT
ATOM      1  C   UNL     1       3.200  -0.851   1.091  0.00  0.00    +0.372 C 
ATOM      2  O   UNL     1       2.600  -1.457   1.955  0.00  0.00    -0.242 OA
ENDROOT
BRANCH   1   4
ATOM      3  C   UNL     1       1.018  -0.047  -0.058  0.00  0.00    +0.099 C 
ATOM      4  C   UNL     1       2.516  -0.067  -0.028  0.00  0.00    +0.236 C 
ATOM      5  O   UNL     1       3.239   0.503  -0.842  0.00  0.00    -0.285 OA
ENDBRANCH   1   4
BRANCH   1   6
ATOM      6  O   UNL     1       4.539  -0.766   0.973  0.00  0.00    -0.475 OA
ATOM      7  H   UNL     1       4.762  -0.214   0.186  0.00  0.00    +0.295 HD
ENDBRANCH   1   6
TORSDOF 2
