REMARK  Name = 
REMARK  18 active torsions:
REMARK  status: ('A' for Active; 'I' for Inactive)
REMARK    1  A    between atoms: C_1  and  N_2
REMARK    2  A    between atoms: C_4  and  O_9
REMARK    3  A    between atoms: C_7  and  C_13
REMARK    4  A    between atoms: C_8  and  O_14
REMARK    5  A    between atoms: C_13  and  O_16
REMARK    6  A    between atoms: O_16  and  P_18
REMARK    7  A    between atoms: P_18  and  O_19
REMARK    8  A    between atoms: P_18  and  O_20
REMARK    9  A    between atoms: O_19  and  P_22
REMARK   10  A    between atoms: P_22  and  O_23
REMARK   11  A    between atoms: P_22  and  O_24
REMARK   12  A    between atoms: O_23  and  C_26
REMARK   13  A    between atoms: C_27  and  N_36
REMARK   14  A    between atoms: C_29  and  O_32
REMARK   15  A    between atoms: C_30  and  C_33
REMARK   16  A    between atoms: C_31  and  O_34
REMARK   17  A    between atoms: C_33  and  O_35
REMARK   18  A    between atoms: C_37  and  C_39
REMARK                            x       y       z     vdW  Elec       q    Type
REMARK                         _______ _______ _______ _____ _____    ______ ____
ROOT
ATOM      1  P   UNL     1       2.075  -1.132  -1.783  0.00  0.00    +0.483 P 
ATOM      2  O   UNL     1       0.944  -1.828  -2.579  0.00  0.00    -0.227 OA
ENDROOT
BRANCH   1   3
ATOM      3  O   UNL     1       1.883  -2.083  -0.457  0.00  0.00    -0.302 OA
ATOM      4  H   UNL     1       1.251  -1.717   0.183  0.00  0.00    +0.222 HD
ENDBRANCH   1   3
BRANCH   1   5
ATOM      5  O   UNL     1       3.339  -0.354  -0.893  0.00  0.00    -0.284 OA
BRANCH   5   6
ATOM      6  C   UNL     1       3.894  -0.230   0.377  0.00  0.00    +0.206 C 
BRANCH   6  10
ATOM      7  C   UNL     1       7.038   1.049  -1.113  0.00  0.00    +0.255 C 
ATOM      8  O   UNL     1       6.364   0.123  -0.211  0.00  0.00    -0.346 OA
ATOM      9  C   UNL     1       5.918   1.927  -1.704  0.00  0.00    +0.195 C 
ATOM     10  C   UNL     1       5.148   0.746   0.295  0.00  0.00    +0.178 C 
ATOM     11  C   UNL     1       4.917   2.014  -0.551  0.00  0.00    +0.178 C 
BRANCH   7  12
ATOM     12  N   UNL     1       7.850   0.306  -2.104  0.00  0.00    -0.271 N 
ATOM     13  C   UNL     1       7.200  -0.572  -2.957  0.00  0.00    +0.331 A 
ATOM     14  C   UNL     1       9.224   0.519  -2.223  0.00  0.00    +0.098 A 
ATOM     15  N   UNL     1       7.979  -1.187  -3.909  0.00  0.00    -0.275 N 
ATOM     16  O   UNL     1       5.993  -0.793  -2.900  0.00  0.00    -0.246 OA
ATOM     17  C   UNL     1       9.966  -0.083  -3.165  0.00  0.00    +0.088 A 
ATOM     18  C   UNL     1       9.309  -0.982  -4.128  0.00  0.00    +0.254 A 
ATOM     19  O   UNL     1       9.934  -1.476  -5.070  0.00  0.00    -0.268 OA
ATOM     20  H   UNL     1       7.479  -1.775  -4.561  0.00  0.00    +0.173 HD
ENDBRANCH   7  12
BRANCH  11  21
ATOM     21  O   UNL     1       5.215   3.216   0.191  0.00  0.00    -0.386 OA
ATOM     22  H   UNL     1       4.761   3.171   1.051  0.00  0.00    +0.210 HD
ENDBRANCH  11  21
BRANCH   9  23
ATOM     23  O   UNL     1       6.356   3.226  -2.123  0.00  0.00    -0.385 OA
ATOM     24  H   UNL     1       5.934   3.859  -1.505  0.00  0.00    +0.210 HD
ENDBRANCH   9  23
ENDBRANCH   6  10
ENDBRANCH   5   6
ENDBRANCH   1   5
BRANCH   1  25
ATOM     25  O   UNL     1       3.222  -2.017  -2.531  0.00  0.00    -0.186 OA
BRANCH  25  26
ATOM     26  P   UNL     1       3.235  -2.661  -4.002  0.00  0.00    +0.486 P 
ATOM     27  O   UNL     1       4.377  -2.193  -4.854  0.00  0.00    -0.227 OA
BRANCH  26  28
ATOM     28  O   UNL     1       1.839  -2.278  -4.700  0.00  0.00    -0.302 OA
ATOM     29  H   UNL     1       1.128  -2.201  -4.019  0.00  0.00    +0.222 HD
ENDBRANCH  26  28
BRANCH  26  30
ATOM     30  O   UNL     1       3.236  -4.244  -3.795  0.00  0.00    -0.254 OA
BRANCH  30  31
ATOM     31  C   UNL     1       2.195  -5.200  -3.828  0.00  0.00    +0.285 C 
ATOM     32  C   UNL     1       1.213  -5.168  -5.028  0.00  0.00    +0.160 C 
ATOM     33  O   UNL     1       1.620  -5.387  -2.523  0.00  0.00    -0.341 OA
ATOM     34  C   UNL     1      -0.199  -4.813  -4.559  0.00  0.00    +0.171 C 
ATOM     35  C   UNL     1       0.264  -5.839  -2.335  0.00  0.00    +0.178 C 
ATOM     36  C   UNL     1      -0.651  -5.899  -3.570  0.00  0.00    +0.176 C 
BRANCH  32  37
ATOM     37  N   UNL     1       1.633  -4.564  -6.285  0.00  0.00    -0.305 N 
ATOM     38  C   UNL     1       2.298  -5.335  -7.208  0.00  0.00    +0.210 C 
ATOM     39  O   UNL     1       2.772  -6.438  -6.932  0.00  0.00    -0.276 OA
ATOM     40  C   UNL     1       2.303  -4.817  -8.620  0.00  0.00    +0.109 C 
ATOM     41  H   UNL     1       1.300  -3.631  -6.520  0.00  0.00    +0.149 HD
ENDBRANCH  32  37
BRANCH  34  42
ATOM     42  O   UNL     1      -1.110  -4.704  -5.657  0.00  0.00    -0.387 OA
ATOM     43  H   UNL     1      -1.369  -5.605  -5.926  0.00  0.00    +0.210 HD
ENDBRANCH  34  42
BRANCH  36  44
ATOM     44  O   UNL     1      -0.780  -7.190  -4.182  0.00  0.00    -0.387 OA
ATOM     45  H   UNL     1       0.022  -7.486  -4.641  0.00  0.00    +0.210 HD
ENDBRANCH  36  44
BRANCH  35  46
ATOM     46  C   UNL     1       0.210  -7.088  -1.424  0.00  0.00    +0.190 C 
BRANCH  46  47
ATOM     47  O   UNL     1       0.066  -6.684  -0.052  0.00  0.00    -0.392 OA
ATOM     48  H   UNL     1       0.850  -6.152   0.172  0.00  0.00    +0.210 HD
ENDBRANCH  46  47
ENDBRANCH  35  46
ENDBRANCH  30  31
ENDBRANCH  26  30
ENDBRANCH  25  26
ENDBRANCH   1  25
TORSDOF 17
