REMARK  Name = 
REMARK  6 active torsions:
REMARK  status: ('A' for Active; 'I' for Inactive)
REMARK    1  A    between atoms: C_1  and  C_2
REMARK    2  A    between atoms: C_1  and  C_3
REMARK    3  A    between atoms: C_2  and  C_5
REMARK    4  A    between atoms: C_3  and  O_6
REMARK    5  A    between atoms: C_5  and  C_8
REMARK    6  A    between atoms: C_8  and  O_10
REMARK                            x       y       z     vdW  Elec       q    Type
REMARK                         _______ _______ _______ _____ _____    ______ ____
ROOT
ATOM      1  C   UNL     1       0.967  -0.024   0.054  0.00  0.00    +0.240 C 
ATOM      2  O   UNL     1       2.048  -0.207  -0.501  0.00  0.00    -0.285 OA
ENDROOT
BRANCH   1   3
ATOM      3  C   UNL     1       0.276   1.320  -0.161  0.00  0.00    +0.373 C 
ATOM      4  O   UNL     1      -0.847   1.563   0.231  0.00  0.00    -0.242 OA
BRANCH   3   5
ATOM      5  O   UNL     1       1.062   2.150  -0.872  0.00  0.00    -0.475 OA
ATOM      6  H   UNL     1       1.918   1.698  -1.064  0.00  0.00    +0.295 HD
ENDBRANCH   3   5
ENDBRANCH   1   3
BRANCH   1   7
ATOM      7  C   UNL     1       0.227  -1.053   0.873  0.00  0.00    +0.098 C 
BRANCH   7   8
ATOM      8  C   UNL     1       1.188  -2.008   1.576  0.00  0.00    +0.128 C 
BRANCH   8   9
ATOM      9  C   UNL     1       2.038  -1.275   2.587  0.00  0.00    +0.305 C 
ATOM     10  O   UNL     1       1.994  -0.071   2.784  0.00  0.00    -0.251 OA
BRANCH   9  11
ATOM     11  O   UNL     1       2.866  -2.096   3.269  0.00  0.00    -0.481 OA
ATOM     12  H   UNL     1       2.808  -3.034   3.005  0.00  0.00    +0.295 HD
ENDBRANCH   9  11
ENDBRANCH   8   9
ENDBRANCH   7   8
ENDBRANCH   1   7
TORSDOF 6
