REMARK  Name = 
REMARK  8 active torsions:
REMARK  status: ('A' for Active; 'I' for Inactive)
REMARK    1  A    between atoms: CA_1  and  CB_2
REMARK    2  A    between atoms: CA_1  and  C_3
REMARK    3  A    between atoms: CA_1  and  N_4
REMARK    4  A    between atoms: CB_2  and  CG_5
REMARK    5  A    between atoms: C_3  and  O_6
REMARK    6  A    between atoms: CG_5  and  CD_8
REMARK    7  A    between atoms: CD_8  and  CE_9
REMARK    8  A    between atoms: CE_9  and  NZ_10
REMARK                            x       y       z     vdW  Elec       q    Type
REMARK                         _______ _______ _______ _____ _____    ______ ____
ROOT
ATOM      1  CA  LYS A   1       1.179   0.294   0.115  0.00  0.00    +0.161 C 
ENDROOT
BRANCH   1   2
ATOM      2  N   LYS A   1       2.642   0.590   0.141  0.00  0.00    -0.318 NA
ATOM      3  H1  LYS A   1       3.122  -0.077   0.752  0.00  0.00    +0.119 HD
ATOM      4  H2  LYS A   1       3.016   0.416  -0.797  0.00  0.00    +0.119 HD
ENDBRANCH   1   2
BRANCH   1   5
ATOM      5  C   LYS A   1       0.468   1.579   0.593  0.00  0.00    +0.322 C 
ATOM      6  OXT LYS A   1      -0.743   1.732   0.680  0.00  0.00    -0.249 OA
BRANCH   5   7
ATOM      7  O   LYS A   1       1.371   2.549   0.909  0.00  0.00    -0.480 OA
ATOM      8  H   LYS A   1       2.251   2.136   0.733  0.00  0.00    +0.295 HD
ENDBRANCH   5   7
ENDBRANCH   1   5
BRANCH   1   9
ATOM      9  CB  LYS A   1       0.731  -0.887   1.000  0.00  0.00    +0.030 C 
BRANCH   9  10
ATOM     10  CG  LYS A   1       1.138  -2.300   0.536  0.00  0.00    +0.003 C 
BRANCH  10  11
ATOM     11  CD  LYS A   1       2.643  -2.540   0.542  0.00  0.00    +0.015 C 
BRANCH  11  12
ATOM     12  CE  LYS A   1       3.030  -3.972   0.184  0.00  0.00    +0.077 C 
BRANCH  12  13
ATOM     13  NZ  LYS A   1       4.489  -4.066   0.173  0.00  0.00    -0.330 NA
ATOM     14  HZ1 LYS A   1       4.876  -3.402  -0.497  0.00  0.00    +0.118 HD
ATOM     15  HZ2 LYS A   1       4.770  -4.990  -0.148  0.00  0.00    +0.118 HD
ENDBRANCH  12  13
ENDBRANCH  11  12
ENDBRANCH  10  11
ENDBRANCH   9  10
ENDBRANCH   1   9
TORSDOF 8
