REMARK  Name = 
REMARK  5 active torsions:
REMARK  status: ('A' for Active; 'I' for Inactive)
REMARK    1  A    between atoms: C_1  and  C_4
REMARK    2  A    between atoms: C_2  and  O_6
REMARK    3  A    between atoms: C_4  and  O_8
REMARK    4  A    between atoms: C_5  and  O_9
REMARK    5  A    between atoms: C_7  and  O_10
REMARK                            x       y       z     vdW  Elec       q    Type
REMARK                         _______ _______ _______ _____ _____    ______ ____
ROOT
ATOM      1  C   UNL     1      -0.799  -1.052  -0.241  0.00  0.00    +0.178 C 
ATOM      2  C   UNL     1       0.709  -1.191  -0.058  0.00  0.00    +0.179 C 
ATOM      3  O   UNL     1      -1.144   0.306   0.102  0.00  0.00    -0.341 OA
ATOM      4  C   UNL     1       1.236   0.241  -0.099  0.00  0.00    +0.201 C 
ATOM      5  C   UNL     1      -0.019   1.112  -0.225  0.00  0.00    +0.279 C 
ENDROOT
BRANCH   2   6
ATOM      6  O   UNL     1       1.276  -1.993  -1.092  0.00  0.00    -0.386 OA
ATOM      7  H   UNL     1       2.023  -1.467  -1.454  0.00  0.00    +0.210 HD
ENDBRANCH   2   6
BRANCH   4   8
ATOM      8  O   UNL     1       2.163   0.413  -1.177  0.00  0.00    -0.384 OA
ATOM      9  H   UNL     1       1.891   1.232  -1.642  0.00  0.00    +0.210 HD
ENDBRANCH   4   8
BRANCH   5  10
ATOM     10  O   UNL     1      -0.153   1.615  -1.547  0.00  0.00    -0.365 OA
ATOM     11  H   UNL     1      -0.428   0.859  -2.095  0.00  0.00    +0.213 HD
ENDBRANCH   5  10
BRANCH   1  12
ATOM     12  C   UNL     1      -1.601  -2.005   0.640  0.00  0.00    +0.190 C 
BRANCH  12  13
ATOM     13  O   UNL     1      -2.998  -1.811   0.414  0.00  0.00    -0.392 OA
ATOM     14  H   UNL     1      -3.145  -0.847   0.450  0.00  0.00    +0.210 HD
ENDBRANCH  12  13
ENDBRANCH   1  12
TORSDOF 5
