REMARK  Name = 
REMARK  5 active torsions:
REMARK  status: ('A' for Active; 'I' for Inactive)
REMARK    1  A    between atoms: CA_1  and  C_2
REMARK    2  A    between atoms: CA_1  and  CB_3
REMARK    3  A    between atoms: CA_1  and  N_4
REMARK    4  A    between atoms: C_2  and  O_5
REMARK    5  A    between atoms: CB_3  and  OG_7
REMARK                            x       y       z     vdW  Elec       q    Type
REMARK                         _______ _______ _______ _____ _____    ______ ____
ROOT
ATOM      1  CA  SER A   1       1.128  -0.041  -0.100  0.00  0.00    +0.186 C 
ENDROOT
BRANCH   1   2
ATOM      2  N   SER A   1       2.610  -0.098   0.024  0.00  0.00    -0.317 NA
ATOM      3  H1  SER A   1       2.944  -0.821  -0.623  0.00  0.00    +0.119 HD
ATOM      4  H2  SER A   1       2.835  -0.489   0.943  0.00  0.00    +0.119 HD
ENDBRANCH   1   2
BRANCH   1   5
ATOM      5  C   SER A   1       0.514  -1.434   0.062  0.00  0.00    +0.324 C 
ATOM      6  OXT SER A   1       1.107  -2.473  -0.194  0.00  0.00    -0.249 OA
BRANCH   5   7
ATOM      7  O   SER A   1      -0.759  -1.420   0.516  0.00  0.00    -0.479 OA
ATOM      8  H   SER A   1      -1.117  -0.532   0.717  0.00  0.00    +0.295 HD
ENDBRANCH   5   7
ENDBRANCH   1   5
BRANCH   1   9
ATOM      9  CB  SER A   1       0.747   0.518  -1.473  0.00  0.00    +0.185 C 
BRANCH   9  10
ATOM     10  OG  SER A   1       1.291   1.826  -1.630  0.00  0.00    -0.393 OA
ATOM     11  H   SER A   1       2.223   1.753  -1.338  0.00  0.00    +0.209 HD
ENDBRANCH   9  10
ENDBRANCH   1   9
TORSDOF 5
