REMARK  Name = 
REMARK  17 active torsions:
REMARK  status: ('A' for Active; 'I' for Inactive)
REMARK    1  A    between atoms: N_1  and  C_3
REMARK    2  A    between atoms: C_8  and  O_14
REMARK    3  A    between atoms: C_12  and  C_18
REMARK    4  A    between atoms: C_13  and  O_19
REMARK    5  A    between atoms: C_18  and  O_20
REMARK    6  A    between atoms: O_20  and  P_21
REMARK    7  A    between atoms: P_21  and  O_22
REMARK    8  A    between atoms: P_21  and  O_23
REMARK    9  A    between atoms: O_22  and  P_25
REMARK   10  A    between atoms: P_25  and  O_26
REMARK   11  A    between atoms: P_25  and  O_27
REMARK   12  A    between atoms: O_26  and  C_29
REMARK   13  A    between atoms: C_31  and  O_34
REMARK   14  A    between atoms: C_32  and  C_36
REMARK   15  A    between atoms: C_33  and  O_37
REMARK   16  A    between atoms: C_35  and  O_38
REMARK   17  A    between atoms: C_36  and  O_39
REMARK                            x       y       z     vdW  Elec       q    Type
REMARK                         _______ _______ _______ _____ _____    ______ ____
ROOT
ATOM      1  O   UNL     1       6.481  -3.063   0.527  0.00  0.00    -0.284 OA
ENDROOT
BRANCH   1   2
ATOM      2  P   UNL     1       7.836  -2.676   1.278  0.00  0.00    +0.483 P 
ATOM      3  O   UNL     1       8.810  -1.829   0.529  0.00  0.00    -0.227 OA
BRANCH   2   4
ATOM      4  O   UNL     1       8.463  -4.141   1.484  0.00  0.00    -0.302 OA
ATOM      5  H   UNL     1       8.738  -4.521   0.623  0.00  0.00    +0.222 HD
ENDBRANCH   2   4
BRANCH   2   6
ATOM      6  O   UNL     1       7.393  -2.117   2.740  0.00  0.00    -0.186 OA
BRANCH   6   7
ATOM      7  P   UNL     1       8.806  -1.923   3.720  0.00  0.00    +0.486 P 
ATOM      8  O   UNL     1      10.070  -1.749   4.596  0.00  0.00    -0.227 OA
BRANCH   7   9
ATOM      9  O   UNL     1       8.952  -3.551   3.740  0.00  0.00    -0.302 OA
ATOM     10  H   UNL     1       9.395  -3.970   2.974  0.00  0.00    +0.222 HD
ENDBRANCH   7   9
BRANCH   7  11
ATOM     11  O   UNL     1       7.784  -1.794   5.023  0.00  0.00    -0.254 OA
BRANCH  11  12
ATOM     12  C   UNL     1       7.017  -2.901   5.474  0.00  0.00    +0.293 C 
ATOM     13  O   UNL     1       7.731  -4.083   5.857  0.00  0.00    -0.340 OA
ATOM     14  C   UNL     1       6.167  -2.503   6.687  0.00  0.00    +0.202 C 
ATOM     15  C   UNL     1       8.740  -3.806   6.834  0.00  0.00    +0.178 C 
ATOM     16  C   UNL     1       7.022  -2.316   7.954  0.00  0.00    +0.179 C 
ATOM     17  C   UNL     1       8.093  -3.411   8.162  0.00  0.00    +0.177 C 
BRANCH  17  18
ATOM     18  O   UNL     1       9.108  -2.927   9.056  0.00  0.00    -0.386 OA
ATOM     19  H   UNL     1       9.549  -2.170   8.632  0.00  0.00    +0.210 HD
ENDBRANCH  17  18
BRANCH  16  20
ATOM     20  O   UNL     1       6.182  -2.249   9.119  0.00  0.00    -0.386 OA
ATOM     21  H   UNL     1       5.298  -1.951   8.845  0.00  0.00    +0.210 HD
ENDBRANCH  16  20
BRANCH  14  22
ATOM     22  O   UNL     1       5.150  -3.501   6.919  0.00  0.00    -0.384 OA
ATOM     23  H   UNL     1       5.610  -4.368   6.921  0.00  0.00    +0.210 HD
ENDBRANCH  14  22
BRANCH  15  24
ATOM     24  C   UNL     1       9.666  -5.024   6.932  0.00  0.00    +0.190 C 
BRANCH  24  25
ATOM     25  O   UNL     1       8.936  -6.217   7.212  0.00  0.00    -0.392 OA
ATOM     26  H   UNL     1       8.354  -6.353   6.443  0.00  0.00    +0.210 HD
ENDBRANCH  24  25
ENDBRANCH  15  24
ENDBRANCH  11  12
ENDBRANCH   7  11
ENDBRANCH   6   7
ENDBRANCH   2   6
ENDBRANCH   1   2
BRANCH   1  27
ATOM     27  C   UNL     1       5.275  -2.411   0.875  0.00  0.00    +0.206 C 
BRANCH  27  31
ATOM     28  C   UNL     1       4.138   0.765   0.901  0.00  0.00    +0.253 C 
ATOM     29  O   UNL     1       3.829  -0.536   0.343  0.00  0.00    -0.346 OA
ATOM     30  C   UNL     1       5.614   0.767   1.272  0.00  0.00    +0.195 C 
ATOM     31  C   UNL     1       5.075  -1.177   0.003  0.00  0.00    +0.178 C 
ATOM     32  C   UNL     1       6.148  -0.100   0.156  0.00  0.00    +0.178 C 
BRANCH  28  33
ATOM     33  N   UNL     1       3.264   1.056   2.012  0.00  0.00    -0.285 N 
ATOM     34  C   UNL     1       3.094   0.354   3.166  0.00  0.00    +0.171 A 
ATOM     35  C   UNL     1       2.481   2.184   2.109  0.00  0.00    +0.203 A 
ATOM     36  C   UNL     1       2.245   1.125   3.930  0.00  0.00    +0.172 A 
ATOM     37  N   UNL     1       3.612  -0.862   3.474  0.00  0.00    -0.196 NA
ATOM     38  N   UNL     1       1.867   2.262   3.265  0.00  0.00    -0.229 NA
ATOM     39  C   UNL     1       1.857   0.635   5.231  0.00  0.00    +0.280 A 
ATOM     40  C   UNL     1       3.197  -1.317   4.627  0.00  0.00    +0.195 A 
ATOM     41  N   UNL     1       2.409  -0.606   5.505  0.00  0.00    -0.293 N 
ATOM     42  O   UNL     1       1.115   1.208   6.021  0.00  0.00    -0.265 OA
ATOM     43  N   UNL     1       3.528  -2.571   5.007  0.00  0.00    -0.329 N 
ATOM     44  H   UNL     1       2.117  -1.021   6.373  0.00  0.00    +0.172 HD
ATOM     45  H   UNL     1       4.241  -2.994   4.430  0.00  0.00    +0.145 HD
ATOM     46  H   UNL     1       3.679  -2.768   5.996  0.00  0.00    +0.145 HD
ENDBRANCH  28  33
BRANCH  32  47
ATOM     47  O   UNL     1       6.273   0.725  -1.014  0.00  0.00    -0.386 OA
ATOM     48  H   UNL     1       5.732   0.350  -1.731  0.00  0.00    +0.210 HD
ENDBRANCH  32  47
BRANCH  30  49
ATOM     49  O   UNL     1       6.237   2.048   1.246  0.00  0.00    -0.385 OA
ATOM     50  H   UNL     1       6.630   2.140   0.351  0.00  0.00    +0.210 HD
ENDBRANCH  30  49
ENDBRANCH  27  31
ENDBRANCH   1  27
TORSDOF 17
