REMARK  Name = 
REMARK  11 active torsions:
REMARK  status: ('A' for Active; 'I' for Inactive)
REMARK    1  A    between atoms: O_1  and  C_2
REMARK    2  A    between atoms: C_2  and  C_3
REMARK    3  A    between atoms: C_3  and  C_4
REMARK    4  A    between atoms: C_3  and  O_9
REMARK    5  A    between atoms: C_4  and  C_5
REMARK    6  A    between atoms: C_4  and  O_10
REMARK    7  A    between atoms: C_5  and  C_6
REMARK    8  A    between atoms: C_5  and  O_12
REMARK    9  A    between atoms: C_6  and  C_7
REMARK   10  A    between atoms: C_6  and  O_11
REMARK   11  A    between atoms: C_7  and  O_8
REMARK                            x       y       z     vdW  Elec       q    Type
REMARK                         _______ _______ _______ _____ _____    ______ ____
ROOT
ATOM      1  C   UNL     1      26.496 -20.948   0.000  0.00  0.00    +0.226 C 
ENDROOT
BRANCH   1   2
ATOM      2  O   UNL     1      26.496 -22.349   0.000  0.00  0.00    -0.217 OA
ATOM      3  H   UNL     1      25.656 -22.834   0.000  0.00  0.00    +0.000 HD
ENDBRANCH   1   2
BRANCH   1   4
ATOM      4  C   UNL     1      25.282 -20.248   0.000  0.00  0.00    +0.218 C 
BRANCH   4   5
ATOM      5  O   UNL     1      25.282 -18.847   0.000  0.00  0.00    -0.217 OA
ATOM      6  H   UNL     1      26.122 -18.362   0.000  0.00  0.00    +0.000 HD
ENDBRANCH   4   5
BRANCH   4   7
ATOM      7  C   UNL     1      24.069 -20.948   0.000  0.00  0.00    +0.218 C 
BRANCH   7   8
ATOM      8  O   UNL     1      24.069 -22.349   0.000  0.00  0.00    -0.217 OA
ATOM      9  H   UNL     1      23.229 -22.834   0.000  0.00  0.00    +0.000 HD
ENDBRANCH   7   8
BRANCH   7  10
ATOM     10  C   UNL     1      22.855 -20.248   0.000  0.00  0.00    +0.217 C 
BRANCH  10  11
ATOM     11  O   UNL     1      21.642 -20.948   0.000  0.00  0.00    -0.217 OA
ATOM     12  H   UNL     1      20.802 -20.463   0.000  0.00  0.00    +0.000 HD
ENDBRANCH  10  11
ENDBRANCH   7  10
ENDBRANCH   4   7
ENDBRANCH   1   4
BRANCH   1  13
ATOM     13  C   UNL     1      27.709 -20.248   0.000  0.00  0.00    +0.287 C 
BRANCH  13  14
ATOM     14  C   UNL     1      28.923 -20.948   0.000  0.00  0.00    +0.397 C 
ATOM     15  O   UNL     1      28.922 -22.330   0.000  0.00  0.00    -0.243 OA
BRANCH  14  16
ATOM     16  O   UNL     1      30.136 -20.248   0.000  0.00  0.00    -0.243 OA
ATOM     17  H   UNL     1      30.948 -20.716   0.000  0.00  0.00    +0.000 HD
ENDBRANCH  14  16
ENDBRANCH  13  14
BRANCH  13  18
ATOM     18  O   UNL     1      27.709 -18.847   0.000  0.00  0.00    -0.208 OA
ATOM     19  H   UNL     1      28.549 -18.362   0.000  0.00  0.00    +0.000 HD
ENDBRANCH  13  18
ENDBRANCH   1  13
TORSDOF 11
