REMARK  Name = 
REMARK  6 active torsions:
REMARK  status: ('A' for Active; 'I' for Inactive)
REMARK    1  A    between atoms: C_1  and  O_4
REMARK    2  A    between atoms: C_2  and  O_6
REMARK    3  A    between atoms: C_3  and  O_8
REMARK    4  A    between atoms: C_5  and  O_10
REMARK    5  A    between atoms: C_7  and  O_11
REMARK    6  A    between atoms: C_9  and  O_12
REMARK                            x       y       z     vdW  Elec       q    Type
REMARK                         _______ _______ _______ _____ _____    ______ ____
ROOT
ATOM      1  C   UNL     1       0.750   1.253  -0.219  0.00  0.00    +0.176 C 
ATOM      2  C   UNL     1       1.502  -0.020   0.216  0.00  0.00    +0.176 C 
ATOM      3  C   UNL     1      -0.712   1.246   0.255  0.00  0.00    +0.176 C 
ATOM      4  C   UNL     1       0.760  -1.289  -0.249  0.00  0.00    +0.176 C 
ATOM      5  C   UNL     1      -1.437  -0.018  -0.232  0.00  0.00    +0.176 C 
ATOM      6  C   UNL     1      -0.710  -1.297   0.223  0.00  0.00    +0.176 C 
ENDROOT
BRANCH   1   7
ATOM      7  O   UNL     1       1.409   2.421   0.277  0.00  0.00    -0.386 OA
ATOM      8  H   UNL     1       1.185   2.511   1.224  0.00  0.00    +0.210 HD
ENDBRANCH   1   7
BRANCH   2   9
ATOM      9  O   UNL     1       2.841  -0.010  -0.291  0.00  0.00    -0.386 OA
ATOM     10  H   UNL     1       2.813   0.013  -1.263  0.00  0.00    +0.210 HD
ENDBRANCH   2   9
BRANCH   3  11
ATOM     11  O   UNL     1      -0.790   1.356   1.689  0.00  0.00    -0.386 OA
ATOM     12  H   UNL     1      -0.315   0.630   2.127  0.00  0.00    +0.210 HD
ENDBRANCH   3  11
BRANCH   4  13
ATOM     13  O   UNL     1       1.443  -2.459   0.215  0.00  0.00    -0.386 OA
ATOM     14  H   UNL     1       1.357  -2.518   1.182  0.00  0.00    +0.210 HD
ENDBRANCH   4  13
BRANCH   5  15
ATOM     15  O   UNL     1      -2.786  -0.015   0.239  0.00  0.00    -0.386 OA
ATOM     16  H   UNL     1      -2.768   0.221   1.185  0.00  0.00    +0.210 HD
ENDBRANCH   5  15
BRANCH   6  17
ATOM     17  O   UNL     1      -1.378  -2.466  -0.263  0.00  0.00    -0.386 OA
ATOM     18  H   UNL     1      -1.535  -2.370  -1.218  0.00  0.00    +0.210 HD
ENDBRANCH   6  17
TORSDOF 6
