REMARK  Name = 
REMARK  2 active torsions:
REMARK  status: ('A' for Active; 'I' for Inactive)
REMARK    1  A    between atoms: S_1  and  O_4
REMARK    2  A    between atoms: S_1  and  O_5
REMARK                            x       y       z     vdW  Elec       q    Type
REMARK                         _______ _______ _______ _____ _____    ______ ____
ROOT
ATOM      1  S   UNL     1       1.024  -0.012   0.032  0.00  0.00    +0.205 S 
ATOM      2  O   UNL     1       0.619   1.161   0.765  0.00  0.00    -0.118 OA
ATOM      3  O   UNL     1       0.619  -0.229  -1.334  0.00  0.00    -0.118 OA
ENDROOT
BRANCH   1   4
ATOM      4  O   UNL     1       0.574  -1.297   0.883  0.00  0.00    -0.231 OA
ATOM      5  H   UNL     1      -0.403  -1.324   0.901  0.00  0.00    +0.247 HD
ENDBRANCH   1   4
BRANCH   1   6
ATOM      6  O   UNL     1       2.627  -0.086   0.081  0.00  0.00    -0.231 OA
ATOM      7  H   UNL     1       2.984   0.672  -0.421  0.00  0.00    +0.247 HD
ENDBRANCH   1   6
TORSDOF 2
