REMARK  Name = 
REMARK  0 active torsions:
REMARK  status: ('A' for Active; 'I' for Inactive)
REMARK                            x       y       z     vdW  Elec       q    Type
REMARK                         _______ _______ _______ _____ _____    ______ ____
ROOT
ATOM      1  C   UNL     1       0.929  -0.001   0.057  0.00  0.00    +0.294 C 
ATOM      2  N   UNL     1       0.198   0.508   1.066  0.00  0.00    -0.314 N 
ATOM      3  N   UNL     1       0.198  -0.511  -0.951  0.00  0.00    -0.314 N 
ATOM      4  O   UNL     1       2.150  -0.001   0.057  0.00  0.00    -0.253 OA
ATOM      5  H   UNL     1      -0.808   0.512   1.073  0.00  0.00    +0.146 HD
ATOM      6  H   UNL     1       0.700   0.904   1.848  0.00  0.00    +0.146 HD
ATOM      7  H   UNL     1      -0.808  -0.514  -0.958  0.00  0.00    +0.146 HD
ATOM      8  H   UNL     1       0.700  -0.906  -1.734  0.00  0.00    +0.146 HD
ENDROOT
TORSDOF 0
