REMARK  Name = 
REMARK  6 active torsions:
REMARK  status: ('A' for Active; 'I' for Inactive)
REMARK    1  A    between atoms: C_1  and  C_2
REMARK    2  A    between atoms: C_1  and  C_3
REMARK    3  A    between atoms: C_1  and  O_4
REMARK    4  A    between atoms: C_2  and  C_5
REMARK    5  A    between atoms: C_3  and  O_6
REMARK    6  A    between atoms: C_5  and  O_8
REMARK                            x       y       z     vdW  Elec       q    Type
REMARK                         _______ _______ _______ _____ _____    ______ ____
ROOT
ATOM      1  C   UNL     1       1.070   0.049   0.070  0.00  0.00    +0.233 C 
ENDROOT
BRANCH   1   2
ATOM      2  C   UNL     1       0.460   0.961  -0.996  0.00  0.00    +0.334 C 
ATOM      3  O   UNL     1      -0.628   1.507  -0.921  0.00  0.00    -0.248 OA
BRANCH   2   4
ATOM      4  O   UNL     1       1.292   1.112  -2.056  0.00  0.00    -0.479 OA
ATOM      5  H   UNL     1       2.107   0.575  -1.942  0.00  0.00    +0.295 HD
ENDBRANCH   2   4
ENDBRANCH   1   2
BRANCH   1   6
ATOM      6  O   UNL     1       2.508   0.141  -0.000  0.00  0.00    -0.380 OA
ATOM      7  H   UNL     1       2.749   1.074   0.185  0.00  0.00    +0.211 HD
ENDBRANCH   1   6
BRANCH   1   8
ATOM      8  C   UNL     1       0.610   0.424   1.467  0.00  0.00    +0.163 C 
BRANCH   8   9
ATOM      9  C   UNL     1       1.059  -0.559   2.516  0.00  0.00    +0.308 C 
ATOM     10  O   UNL     1       0.405  -0.798   3.522  0.00  0.00    -0.251 OA
BRANCH   9  11
ATOM     11  O   UNL     1       2.285  -1.091   2.326  0.00  0.00    -0.481 OA
ATOM     12  H   UNL     1       2.731  -0.817   1.493  0.00  0.00    +0.295 HD
ENDBRANCH   9  11
ENDBRANCH   8   9
ENDBRANCH   1   8
TORSDOF 6
