REMARK  Name = 
REMARK  8 active torsions:
REMARK  status: ('A' for Active; 'I' for Inactive)
REMARK    1  A    between atoms: P_1  and  O_2
REMARK    2  A    between atoms: P_1  and  O_3
REMARK    3  A    between atoms: P_1  and  O_4
REMARK    4  A    between atoms: O_2  and  C_6
REMARK    5  A    between atoms: C_6  and  C_7
REMARK    6  A    between atoms: C_7  and  C_8
REMARK    7  A    between atoms: C_7  and  O_9
REMARK    8  A    between atoms: C_8  and  O_10
REMARK                            x       y       z     vdW  Elec       q    Type
REMARK                         _______ _______ _______ _____ _____    ______ ____
ROOT
ATOM      1  C   UNL     1      -0.206   4.289  -0.387  0.00  0.00    +0.215 C 
ENDROOT
BRANCH   1   2
ATOM      2  O   UNL     1       0.081   4.545  -1.761  0.00  0.00    -0.284 OA
BRANCH   2   3
ATOM      3  P   UNL     1      -1.231   4.918  -2.695  0.00  0.00    +0.472 P 
ATOM      4  O   UNL     1      -1.632   3.448  -2.969  0.00  0.00    -0.228 OA
BRANCH   3   5
ATOM      5  O   UNL     1      -0.440   5.146  -4.108  0.00  0.00    -0.303 OA
ATOM      6  H   UNL     1      -1.061   5.364  -4.825  0.00  0.00    +0.222 HD
ENDBRANCH   3   5
BRANCH   3   7
ATOM      7  O   UNL     1      -0.782   6.561  -2.390  0.00  0.00    -0.303 OA
ATOM      8  H   UNL     1       0.182   6.593  -2.556  0.00  0.00    +0.222 HD
ENDBRANCH   3   7
ENDBRANCH   2   3
ENDBRANCH   1   2
BRANCH   1   9
ATOM      9  C   UNL     1       1.088   4.009   0.366  0.00  0.00    +0.249 C 
BRANCH   9  10
ATOM     10  C   UNL     1       2.006   5.227   0.404  0.00  0.00    +0.336 C 
ATOM     11  O   UNL     1       1.642   6.388   0.464  0.00  0.00    -0.248 OA
BRANCH  10  12
ATOM     12  O   UNL     1       3.316   4.855   0.405  0.00  0.00    -0.479 OA
ATOM     13  H   UNL     1       3.356   3.873   0.325  0.00  0.00    +0.295 HD
ENDBRANCH  10  12
ENDBRANCH   9  10
BRANCH   9  14
ATOM     14  O   UNL     1       1.815   2.922  -0.239  0.00  0.00    -0.379 OA
ATOM     15  H   UNL     1       1.674   3.017  -1.206  0.00  0.00    +0.211 HD
ENDBRANCH   9  14
ENDBRANCH   1   9
TORSDOF 8
