REMARK  Name = 
REMARK  8 active torsions:
REMARK  status: ('A' for Active; 'I' for Inactive)
REMARK    1  A    between atoms: N_1  and  C_3
REMARK    2  A    between atoms: C_8  and  O_14
REMARK    3  A    between atoms: C_12  and  C_17
REMARK    4  A    between atoms: C_13  and  O_18
REMARK    5  A    between atoms: C_17  and  O_19
REMARK    6  A    between atoms: O_19  and  P_20
REMARK    7  A    between atoms: P_20  and  O_21
REMARK    8  A    between atoms: P_20  and  O_22
REMARK                            x       y       z     vdW  Elec       q    Type
REMARK                         _______ _______ _______ _____ _____    ______ ____
ROOT
ATOM      1  C   UNL     1       2.111  -2.416   0.032  0.00  0.00    +0.253 C 
ATOM      2  O   UNL     1       2.924  -2.657   1.196  0.00  0.00    -0.346 OA
ATOM      3  C   UNL     1       2.953  -2.762  -1.195  0.00  0.00    +0.195 C 
ATOM      4  C   UNL     1       4.086  -3.430   0.804  0.00  0.00    +0.178 C 
ATOM      5  C   UNL     1       3.854  -3.855  -0.641  0.00  0.00    +0.178 C 
ENDROOT
BRANCH   1   6
ATOM      6  N   UNL     1       1.621  -1.051   0.064  0.00  0.00    -0.285 N 
ATOM      7  C   UNL     1       2.349   0.106   0.081  0.00  0.00    +0.169 A 
ATOM      8  C   UNL     1       0.295  -0.690   0.034  0.00  0.00    +0.203 A 
ATOM      9  C   UNL     1       1.413   1.117   0.051  0.00  0.00    +0.172 A 
ATOM     10  N   UNL     1       3.701   0.217   0.080  0.00  0.00    -0.218 NA
ATOM     11  N   UNL     1       0.136   0.617   0.033  0.00  0.00    -0.229 NA
ATOM     12  C   UNL     1       1.885   2.484   0.013  0.00  0.00    +0.279 A 
ATOM     13  C   UNL     1       4.096   1.456   0.003  0.00  0.00    +0.201 A 
ATOM     14  N   UNL     1       3.274   2.555  -0.032  0.00  0.00    -0.312 N 
ATOM     15  O   UNL     1       1.183   3.489   0.011  0.00  0.00    -0.265 OA
ATOM     16  H   UNL     1       3.655   3.488  -0.055  0.00  0.00    +0.170 HD
ENDBRANCH   1   6
BRANCH   3  17
ATOM     17  O   UNL     1       2.165  -3.236  -2.286  0.00  0.00    -0.385 OA
ATOM     18  H   UNL     1       2.187  -4.215  -2.239  0.00  0.00    +0.210 HD
ENDBRANCH   3  17
BRANCH   5  19
ATOM     19  O   UNL     1       3.130  -5.100  -0.710  0.00  0.00    -0.386 OA
ATOM     20  H   UNL     1       2.595  -5.207   0.099  0.00  0.00    +0.210 HD
ENDBRANCH   5  19
BRANCH   4  21
ATOM     21  C   UNL     1       5.355  -2.599   1.008  0.00  0.00    +0.206 C 
BRANCH  21  22
ATOM     22  O   UNL     1       5.443  -2.317   2.397  0.00  0.00    -0.284 OA
BRANCH  22  23
ATOM     23  P   UNL     1       6.356  -1.097   2.893  0.00  0.00    +0.472 P 
ATOM     24  O   UNL     1       7.757  -1.148   2.400  0.00  0.00    -0.228 OA
BRANCH  23  25
ATOM     25  O   UNL     1       5.450   0.142   2.463  0.00  0.00    -0.303 OA
ATOM     26  H   UNL     1       4.679  -0.132   1.927  0.00  0.00    +0.222 HD
ENDBRANCH  23  25
BRANCH  23  27
ATOM     27  O   UNL     1       6.089  -1.229   4.459  0.00  0.00    -0.303 OA
ATOM     28  H   UNL     1       6.073  -2.162   4.733  0.00  0.00    +0.222 HD
ENDBRANCH  23  27
ENDBRANCH  22  23
ENDBRANCH  21  22
ENDBRANCH   4  21
TORSDOF 8
