REMARK  Name = 
REMARK  12 active torsions:
REMARK  status: ('A' for Active; 'I' for Inactive)
REMARK    1  A    between atoms: C_1  and  O_3
REMARK    2  A    between atoms: C_2  and  C_6
REMARK    3  A    between atoms: O_3  and  C_7
REMARK    4  A    between atoms: C_4  and  O_9
REMARK    5  A    between atoms: C_6  and  O_11
REMARK    6  A    between atoms: C_8  and  O_14
REMARK    7  A    between atoms: C_10  and  O_15
REMARK    8  A    between atoms: C_13  and  O_18
REMARK    9  A    between atoms: C_16  and  C_20
REMARK   10  A    between atoms: C_17  and  O_21
REMARK   11  A    between atoms: C_19  and  O_22
REMARK   12  A    between atoms: C_20  and  O_23
REMARK                            x       y       z     vdW  Elec       q    Type
REMARK                         _______ _______ _______ _____ _____    ______ ____
ROOT
ATOM      1  O   UNL     1       0.920   0.554  -1.770  0.00  0.00    -0.340 OA
ENDROOT
BRANCH   1   2
ATOM      2  C   UNL     1       0.395   0.197  -0.461  0.00  0.00    +0.183 C 
ATOM      3  C   UNL     1      -1.164   0.048  -0.606  0.00  0.00    +0.178 C 
ATOM      4  C   UNL     1       0.806   1.136   0.714  0.00  0.00    +0.179 C 
ATOM      5  O   UNL     1      -1.938   1.170  -0.166  0.00  0.00    -0.341 OA
ATOM      6  C   UNL     1      -0.159   2.291   0.947  0.00  0.00    +0.201 C 
ATOM      7  C   UNL     1      -1.579   1.721   1.097  0.00  0.00    +0.279 C 
BRANCH   4   8
ATOM      8  O   UNL     1       0.885   0.359   1.927  0.00  0.00    -0.386 OA
ATOM      9  H   UNL     1       1.654  -0.236   1.839  0.00  0.00    +0.210 HD
ENDBRANCH   4   8
BRANCH   6  10
ATOM     10  O   UNL     1      -0.090   3.235  -0.132  0.00  0.00    -0.384 OA
ATOM     11  H   UNL     1      -0.595   2.849  -0.877  0.00  0.00    +0.210 HD
ENDBRANCH   6  10
BRANCH   7  12
ATOM     12  O   UNL     1      -1.694   0.792   2.169  0.00  0.00    -0.365 OA
ATOM     13  H   UNL     1      -0.780   0.552   2.450  0.00  0.00    +0.213 HD
ENDBRANCH   7  12
BRANCH   3  14
ATOM     14  C   UNL     1      -1.755  -1.231   0.015  0.00  0.00    +0.190 C 
BRANCH  14  15
ATOM     15  O   UNL     1      -1.446  -2.372  -0.782  0.00  0.00    -0.392 OA
ATOM     16  H   UNL     1      -2.227  -2.956  -0.742  0.00  0.00    +0.210 HD
ENDBRANCH  14  15
ENDBRANCH   3  14
ENDBRANCH   1   2
BRANCH   1  17
ATOM     17  C   UNL     1       2.230   1.114  -1.881  0.00  0.00    +0.282 C 
ATOM     18  O   UNL     1       2.496   1.545  -3.221  0.00  0.00    -0.341 OA
ATOM     19  C   UNL     1       3.374   0.301  -1.196  0.00  0.00    +0.201 C 
ATOM     20  C   UNL     1       3.255   0.704  -4.099  0.00  0.00    +0.178 C 
ATOM     21  C   UNL     1       4.284  -0.494  -2.138  0.00  0.00    +0.179 C 
ATOM     22  C   UNL     1       4.567   0.292  -3.418  0.00  0.00    +0.177 C 
BRANCH  19  23
ATOM     23  O   UNL     1       4.207   1.198  -0.430  0.00  0.00    -0.384 OA
ATOM     24  H   UNL     1       4.498   1.928  -1.009  0.00  0.00    +0.210 HD
ENDBRANCH  19  23
BRANCH  21  25
ATOM     25  O   UNL     1       3.763  -1.782  -2.499  0.00  0.00    -0.386 OA
ATOM     26  H   UNL     1       3.002  -2.002  -1.931  0.00  0.00    +0.210 HD
ENDBRANCH  21  25
BRANCH  22  27
ATOM     27  O   UNL     1       5.400  -0.469  -4.295  0.00  0.00    -0.386 OA
ATOM     28  H   UNL     1       5.181  -1.410  -4.136  0.00  0.00    +0.210 HD
ENDBRANCH  22  27
BRANCH  20  29
ATOM     29  C   UNL     1       2.455  -0.467  -4.701  0.00  0.00    +0.190 C 
BRANCH  29  30
ATOM     30  O   UNL     1       1.426  -0.006  -5.577  0.00  0.00    -0.392 OA
ATOM     31  H   UNL     1       1.835   0.166  -6.443  0.00  0.00    +0.210 HD
ENDBRANCH  29  30
ENDBRANCH  20  29
ENDBRANCH   1  17
TORSDOF 12
