REMARK  Name = 
REMARK  6 active torsions:
REMARK  status: ('A' for Active; 'I' for Inactive)
REMARK    1  A    between atoms: C_1  and  C_4
REMARK    2  A    between atoms: C_2  and  O_6
REMARK    3  A    between atoms: C_4  and  O_8
REMARK    4  A    between atoms: C_5  and  O_10
REMARK    5  A    between atoms: C_7  and  O_11
REMARK    6  A    between atoms: C_9  and  O_12
REMARK                            x       y       z     vdW  Elec       q    Type
REMARK                         _______ _______ _______ _____ _____    ______ ____
ROOT
ATOM      1  C   UNL     1       0.618   1.241  -0.309  0.00  0.00    +0.178 C 
ATOM      2  C   UNL     1       1.354  -0.009   0.203  0.00  0.00    +0.177 C 
ATOM      3  O   UNL     1      -0.752   1.228   0.127  0.00  0.00    -0.341 OA
ATOM      4  C   UNL     1       0.642  -1.303  -0.240  0.00  0.00    +0.179 C 
ATOM      5  C   UNL     1      -1.488   0.080  -0.289  0.00  0.00    +0.279 C 
ATOM      6  C   UNL     1      -0.843  -1.245   0.163  0.00  0.00    +0.201 C 
ENDROOT
BRANCH   2   7
ATOM      7  O   UNL     1       1.355   0.006   1.646  0.00  0.00    -0.386 OA
ATOM      8  H   UNL     1       1.447   0.932   1.939  0.00  0.00    +0.210 HD
ENDBRANCH   2   7
BRANCH   4   9
ATOM      9  O   UNL     1       0.836  -1.481  -1.641  0.00  0.00    -0.386 OA
ATOM     10  H   UNL     1       0.005  -1.769  -2.063  0.00  0.00    +0.210 HD
ENDBRANCH   4   9
BRANCH   5  11
ATOM     11  O   UNL     1      -2.795   0.181   0.260  0.00  0.00    -0.365 OA
ATOM     12  H   UNL     1      -2.711  -0.205   1.155  0.00  0.00    +0.213 HD
ENDBRANCH   5  11
BRANCH   6  13
ATOM     13  O   UNL     1      -1.000  -1.368   1.593  0.00  0.00    -0.384 OA
ATOM     14  H   UNL     1      -0.279  -0.838   2.000  0.00  0.00    +0.210 HD
ENDBRANCH   6  13
BRANCH   1  15
ATOM     15  C   UNL     1       0.719   1.493  -1.822  0.00  0.00    +0.190 C 
BRANCH  15  16
ATOM     16  O   UNL     1       0.030   2.702  -2.149  0.00  0.00    -0.392 OA
ATOM     17  H   UNL     1      -0.814   2.685  -1.654  0.00  0.00    +0.210 HD
ENDBRANCH  15  16
ENDBRANCH   1  15
TORSDOF 6
