MODEL 1
REMARK VINA RESULT:    -6.518      0.000      0.000
REMARK INTER + INTRA:         -10.749
REMARK INTER:                  -9.758
REMARK INTRA:                  -0.992
REMARK UNBOUND:                -0.992
REMARK  Name = 
REMARK  11 active torsions:
REMARK  status: ('A' for Active; 'I' for Inactive)
REMARK    1  A    between atoms: N_1  and  C_3
REMARK    2  A    between atoms: C_8  and  O_14
REMARK    3  A    between atoms: C_12  and  C_17
REMARK    4  A    between atoms: C_13  and  O_18
REMARK    5  A    between atoms: C_17  and  S_19
REMARK    6  A    between atoms: S_19  and  C_20
REMARK    7  A    between atoms: S_19  and  C_21
REMARK    8  A    between atoms: C_20  and  C_22
REMARK    9  A    between atoms: C_22  and  CA_23
REMARK   10  A    between atoms: CA_23  and  C_24
REMARK   11  A    between atoms: CA_23  and  N_25
REMARK                            x       y       z     vdW  Elec       q    Type
REMARK                         _______ _______ _______ _____ _____    ______ ____
ROOT
ATOM      1  C   UNL     1      -3.828  10.096 -23.156  0.00  0.00    +0.253 C 
ATOM      2  O   UNL     1      -4.069   8.971 -24.026  0.00  0.00    -0.347 OA
ATOM      3  C   UNL     1      -4.998  10.107 -22.171  0.00  0.00    +0.195 C 
ATOM      4  C   UNL     1      -4.902   8.019 -23.329  0.00  0.00    +0.161 C 
ATOM      5  C   UNL     1      -5.179   8.613 -21.945  0.00  0.00    +0.177 C 
ENDROOT
BRANCH   1   6
ATOM      6  N   UNL     1      -3.702  11.293 -23.957  0.00  0.00    -0.286 N 
ATOM      7  C   UNL     1      -3.171  12.478 -23.529  0.00  0.00    +0.167 A 
ATOM      8  C   UNL     1      -4.022  11.438 -25.283  0.00  0.00    +0.203 A 
ATOM      9  C   UNL     1      -3.222  13.309 -24.638  0.00  0.00    +0.147 A 
ATOM     10  N   UNL     1      -2.688  12.779 -22.313  0.00  0.00    -0.216 NA
ATOM     11  N   UNL     1      -3.758  12.651 -25.726  0.00  0.00    -0.231 NA
ATOM     12  C   UNL     1      -2.709  14.609 -24.479  0.00  0.00    +0.147 A 
ATOM     13  C   UNL     1      -2.232  14.048 -22.276  0.00  0.00    +0.225 A 
ATOM     14  N   UNL     1      -2.206  14.965 -23.274  0.00  0.00    -0.219 NA
ATOM     15  N   UNL     1      -2.662  15.538 -25.511  0.00  0.00    -0.341 N 
ATOM     16  H   UNL     1      -2.708  15.095 -26.423  0.00  0.00    +0.144 HD
ATOM     17  H   UNL     1      -1.920  16.211 -25.361  0.00  0.00    +0.144 HD
ENDBRANCH   1   6
BRANCH   3  18
ATOM     18  O   UNL     1      -4.735  10.768 -20.935  0.00  0.00    -0.385 OA
ATOM     19  H   UNL     1      -4.448  10.059 -20.320  0.00  0.00    +0.210 HD
ENDBRANCH   3  18
BRANCH   5  20
ATOM     20  O   UNL     1      -4.168   8.215 -20.994  0.00  0.00    -0.386 OA
ATOM     21  H   UNL     1      -4.378   7.311 -20.687  0.00  0.00    +0.210 HD
ENDBRANCH   5  20
BRANCH   4  22
ATOM     22  C   UNL     1      -6.196   7.747 -24.108  0.00  0.00    +0.093 C 
BRANCH  22  23
ATOM     23  S   UNL     1      -6.486   5.971 -24.449  0.00  0.00    -0.209 S 
ATOM     24  C   UNL     1      -8.282   6.116 -24.711  0.00  0.00    +0.073 C 
BRANCH  23  25
ATOM     25  C   UNL     1      -6.610   5.389 -22.716  0.00  0.00    +0.061 C 
BRANCH  25  26
ATOM     26  C   UNL     1      -7.983   5.708 -22.126  0.00  0.00    +0.040 C 
BRANCH  26  27
ATOM     27  CA  UNL     1      -7.908   6.744 -21.002  0.00  0.00    +0.166 C 
BRANCH  27  28
ATOM     28  C   UNL     1      -9.260   7.552 -20.964  0.00  0.00    +0.372 C 
ATOM     29  O   UNL     1     -10.200   7.059 -21.655  0.00  0.00    -0.245 OA
ATOM     30  OXT UNL     1      -9.240   8.592 -20.245  0.00  0.00    -0.245 OA
ENDBRANCH  27  28
BRANCH  27  31
ATOM     31  N   UNL     1      -7.712   6.039 -19.693  0.00  0.00    -0.318 NA
ATOM     32  H1  UNL     1      -6.817   5.544 -19.816  0.00  0.00    +0.119 HD
ATOM     33  H2  UNL     1      -8.363   5.248 -19.722  0.00  0.00    +0.119 HD
ENDBRANCH  27  31
ENDBRANCH  26  27
ENDBRANCH  25  26
ENDBRANCH  23  25
ENDBRANCH  22  23
ENDBRANCH   4  22
TORSDOF 10
ENDMDL
MODEL 2
REMARK VINA RESULT:    -6.514     27.708     28.961
REMARK INTER + INTRA:         -10.742
REMARK INTER:                  -9.443
REMARK INTRA:                  -1.299
REMARK UNBOUND:                -0.992
REMARK  Name = 
REMARK  11 active torsions:
REMARK  status: ('A' for Active; 'I' for Inactive)
REMARK    1  A    between atoms: N_1  and  C_3
REMARK    2  A    between atoms: C_8  and  O_14
REMARK    3  A    between atoms: C_12  and  C_17
REMARK    4  A    between atoms: C_13  and  O_18
REMARK    5  A    between atoms: C_17  and  S_19
REMARK    6  A    between atoms: S_19  and  C_20
REMARK    7  A    between atoms: S_19  and  C_21
REMARK    8  A    between atoms: C_20  and  C_22
REMARK    9  A    between atoms: C_22  and  CA_23
REMARK   10  A    between atoms: CA_23  and  C_24
REMARK   11  A    between atoms: CA_23  and  N_25
REMARK                            x       y       z     vdW  Elec       q    Type
REMARK                         _______ _______ _______ _____ _____    ______ ____
ROOT
ATOM      1  C   UNL     1     -11.532 -14.006  -7.028  0.00  0.00    +0.253 C 
ATOM      2  O   UNL     1     -11.395 -14.030  -8.464  0.00  0.00    -0.347 OA
ATOM      3  C   UNL     1     -13.037 -14.045  -6.761  0.00  0.00    +0.195 C 
ATOM      4  C   UNL     1     -12.576 -14.641  -9.030  0.00  0.00    +0.161 C 
ATOM      5  C   UNL     1     -13.482 -15.009  -7.851  0.00  0.00    +0.177 C 
ENDROOT
BRANCH   1   6
ATOM      6  N   UNL     1     -10.857 -12.836  -6.510  0.00  0.00    -0.286 N 
ATOM      7  C   UNL     1      -9.608 -12.825  -5.956  0.00  0.00    +0.167 A 
ATOM      8  C   UNL     1     -11.307 -11.541  -6.541  0.00  0.00    +0.203 A 
ATOM      9  C   UNL     1      -9.369 -11.494  -5.647  0.00  0.00    +0.147 A 
ATOM     10  N   UNL     1      -8.778 -13.863  -5.762  0.00  0.00    -0.216 NA
ATOM     11  N   UNL     1     -10.438 -10.703  -6.013  0.00  0.00    -0.231 NA
ATOM     12  C   UNL     1      -8.123 -11.192  -5.071  0.00  0.00    +0.147 A 
ATOM     13  C   UNL     1      -7.620 -13.456  -5.200  0.00  0.00    +0.225 A 
ATOM     14  N   UNL     1      -7.245 -12.199  -4.857  0.00  0.00    -0.219 NA
ATOM     15  N   UNL     1      -7.732  -9.899  -4.743  0.00  0.00    -0.341 N 
ATOM     16  H   UNL     1      -8.264  -9.202  -5.253  0.00  0.00    +0.144 HD
ATOM     17  H   UNL     1      -6.723  -9.811  -4.753  0.00  0.00    +0.144 HD
ENDBRANCH   1   6
BRANCH   3  18
ATOM     18  O   UNL     1     -13.405 -14.544  -5.477  0.00  0.00    -0.385 OA
ATOM     19  H   UNL     1     -13.736 -15.454  -5.639  0.00  0.00    +0.210 HD
ENDBRANCH   3  18
BRANCH   5  20
ATOM     20  O   UNL     1     -13.196 -16.339  -7.368  0.00  0.00    -0.386 OA
ATOM     21  H   UNL     1     -12.859 -16.869  -8.116  0.00  0.00    +0.210 HD
ENDBRANCH   5  20
BRANCH   4  22
ATOM     22  C   UNL     1     -13.270 -13.689 -10.013  0.00  0.00    +0.093 C 
BRANCH  22  23
ATOM     23  S   UNL     1     -15.098 -13.742  -9.918  0.00  0.00    -0.209 S 
ATOM     24  C   UNL     1     -15.384 -13.778 -11.716  0.00  0.00    +0.073 C 
BRANCH  23  25
ATOM     25  C   UNL     1     -15.401 -11.945  -9.730  0.00  0.00    +0.061 C 
BRANCH  25  26
ATOM     26  C   UNL     1     -16.556 -11.681  -8.763  0.00  0.00    +0.040 C 
BRANCH  26  27
ATOM     27  CA  UNL     1     -16.795 -12.853  -7.808  0.00  0.00    +0.166 C 
BRANCH  27  28
ATOM     28  C   UNL     1     -16.509 -12.375  -6.335  0.00  0.00    +0.372 C 
ATOM     29  O   UNL     1     -16.726 -11.146  -6.117  0.00  0.00    -0.245 OA
ATOM     30  OXT UNL     1     -16.099 -13.279  -5.550  0.00  0.00    -0.245 OA
ENDBRANCH  27  28
BRANCH  27  31
ATOM     31  N   UNL     1     -18.224 -13.296  -7.919  0.00  0.00    -0.318 NA
ATOM     32  H1  UNL     1     -18.478 -13.539  -6.952  0.00  0.00    +0.119 HD
ATOM     33  H2  UNL     1     -18.176 -14.231  -8.336  0.00  0.00    +0.119 HD
ENDBRANCH  27  31
ENDBRANCH  26  27
ENDBRANCH  25  26
ENDBRANCH  23  25
ENDBRANCH  22  23
ENDBRANCH   4  22
TORSDOF 10
ENDMDL
MODEL 3
REMARK VINA RESULT:    -6.504     31.142     34.869
REMARK INTER + INTRA:         -10.728
REMARK INTER:                  -9.720
REMARK INTRA:                  -1.008
REMARK UNBOUND:                -0.992
REMARK  Name = 
REMARK  11 active torsions:
REMARK  status: ('A' for Active; 'I' for Inactive)
REMARK    1  A    between atoms: N_1  and  C_3
REMARK    2  A    between atoms: C_8  and  O_14
REMARK    3  A    between atoms: C_12  and  C_17
REMARK    4  A    between atoms: C_13  and  O_18
REMARK    5  A    between atoms: C_17  and  S_19
REMARK    6  A    between atoms: S_19  and  C_20
REMARK    7  A    between atoms: S_19  and  C_21
REMARK    8  A    between atoms: C_20  and  C_22
REMARK    9  A    between atoms: C_22  and  CA_23
REMARK   10  A    between atoms: CA_23  and  C_24
REMARK   11  A    between atoms: CA_23  and  N_25
REMARK                            x       y       z     vdW  Elec       q    Type
REMARK                         _______ _______ _______ _____ _____    ______ ____
ROOT
ATOM      1  C   UNL     1     -23.319   1.021   3.607  0.00  0.00    +0.253 C 
ATOM      2  O   UNL     1     -23.128   1.935   4.706  0.00  0.00    -0.347 OA
ATOM      3  C   UNL     1     -24.248  -0.070   4.141  0.00  0.00    +0.195 C 
ATOM      4  C   UNL     1     -24.256   1.822   5.601  0.00  0.00    +0.161 C 
ATOM      5  C   UNL     1     -25.187   0.768   4.997  0.00  0.00    +0.177 C 
ENDROOT
BRANCH   1   6
ATOM      6  N   UNL     1     -22.028   0.546   3.159  0.00  0.00    -0.286 N 
ATOM      7  C   UNL     1     -21.796  -0.136   1.998  0.00  0.00    +0.167 A 
ATOM      8  C   UNL     1     -20.816   0.748   3.769  0.00  0.00    +0.203 A 
ATOM      9  C   UNL     1     -20.425  -0.341   1.975  0.00  0.00    +0.147 A 
ATOM     10  N   UNL     1     -22.687  -0.516   1.067  0.00  0.00    -0.216 NA
ATOM     11  N   UNL     1     -19.824   0.211   3.087  0.00  0.00    -0.231 NA
ATOM     12  C   UNL     1     -19.904  -1.016   0.857  0.00  0.00    +0.147 A 
ATOM     13  C   UNL     1     -22.078  -1.158   0.049  0.00  0.00    +0.225 A 
ATOM     14  N   UNL     1     -20.757  -1.418  -0.114  0.00  0.00    -0.219 NA
ATOM     15  N   UNL     1     -18.547  -1.260   0.682  0.00  0.00    -0.341 N 
ATOM     16  H   UNL     1     -17.975  -0.632   1.235  0.00  0.00    +0.144 HD
ATOM     17  H   UNL     1     -18.318  -1.351  -0.301  0.00  0.00    +0.144 HD
ENDBRANCH   1   6
BRANCH   3  18
ATOM     18  O   UNL     1     -24.983  -0.774   3.142  0.00  0.00    -0.385 OA
ATOM     19  H   UNL     1     -24.312  -1.291   2.645  0.00  0.00    +0.210 HD
ENDBRANCH   3  18
BRANCH   5  20
ATOM     20  O   UNL     1     -26.141   1.369   4.094  0.00  0.00    -0.386 OA
ATOM     21  H   UNL     1     -26.145   2.333   4.253  0.00  0.00    +0.210 HD
ENDBRANCH   5  20
BRANCH   4  22
ATOM     22  C   UNL     1     -23.799   1.443   7.016  0.00  0.00    +0.093 C 
BRANCH  22  23
ATOM     23  S   UNL     1     -25.098   0.615   8.007  0.00  0.00    -0.209 S 
ATOM     24  C   UNL     1     -24.547   1.257   9.620  0.00  0.00    +0.073 C 
BRANCH  23  25
ATOM     25  C   UNL     1     -24.287  -1.019   8.186  0.00  0.00    +0.061 C 
BRANCH  25  26
ATOM     26  C   UNL     1     -22.999  -0.907   9.001  0.00  0.00    +0.040 C 
BRANCH  26  27
ATOM     27  CA  UNL     1     -22.201  -2.214   9.012  0.00  0.00    +0.166 C 
BRANCH  27  28
ATOM     28  C   UNL     1     -21.016  -2.077  10.040  0.00  0.00    +0.372 C 
ATOM     29  O   UNL     1     -20.596  -3.170  10.525  0.00  0.00    -0.245 OA
ATOM     30  OXT UNL     1     -20.628  -0.893  10.253  0.00  0.00    -0.245 OA
ENDBRANCH  27  28
BRANCH  27  31
ATOM     31  N   UNL     1     -23.101  -3.336   9.435  0.00  0.00    -0.318 NA
ATOM     32  H1  UNL     1     -23.803  -3.381   8.683  0.00  0.00    +0.119 HD
ATOM     33  H2  UNL     1     -23.670  -2.945  10.193  0.00  0.00    +0.119 HD
ENDBRANCH  27  31
ENDBRANCH  26  27
ENDBRANCH  25  26
ENDBRANCH  23  25
ENDBRANCH  22  23
ENDBRANCH   4  22
TORSDOF 10
ENDMDL
MODEL 4
REMARK VINA RESULT:    -6.367     30.049     33.771
REMARK INTER + INTRA:         -10.523
REMARK INTER:                  -9.733
REMARK INTRA:                  -0.790
REMARK UNBOUND:                -0.992
REMARK  Name = 
REMARK  11 active torsions:
REMARK  status: ('A' for Active; 'I' for Inactive)
REMARK    1  A    between atoms: N_1  and  C_3
REMARK    2  A    between atoms: C_8  and  O_14
REMARK    3  A    between atoms: C_12  and  C_17
REMARK    4  A    between atoms: C_13  and  O_18
REMARK    5  A    between atoms: C_17  and  S_19
REMARK    6  A    between atoms: S_19  and  C_20
REMARK    7  A    between atoms: S_19  and  C_21
REMARK    8  A    between atoms: C_20  and  C_22
REMARK    9  A    between atoms: C_22  and  CA_23
REMARK   10  A    between atoms: CA_23  and  C_24
REMARK   11  A    between atoms: CA_23  and  N_25
REMARK                            x       y       z     vdW  Elec       q    Type
REMARK                         _______ _______ _______ _____ _____    ______ ____
ROOT
ATOM      1  C   UNL     1     -20.297   0.610   3.636  0.00  0.00    +0.253 C 
ATOM      2  O   UNL     1     -21.049  -0.205   4.558  0.00  0.00    -0.347 OA
ATOM      3  C   UNL     1     -21.261   1.706   3.181  0.00  0.00    +0.195 C 
ATOM      4  C   UNL     1     -22.115   0.593   5.117  0.00  0.00    +0.161 C 
ATOM      5  C   UNL     1     -21.993   1.984   4.486  0.00  0.00    +0.177 C 
ENDROOT
BRANCH   1   6
ATOM      6  N   UNL     1     -19.791  -0.228   2.572  0.00  0.00    -0.286 N 
ATOM      7  C   UNL     1     -18.511  -0.698   2.476  0.00  0.00    +0.167 A 
ATOM      8  C   UNL     1     -20.502  -0.751   1.522  0.00  0.00    +0.203 A 
ATOM      9  C   UNL     1     -18.504  -1.479   1.331  0.00  0.00    +0.147 A 
ATOM     10  N   UNL     1     -17.481  -0.474   3.309  0.00  0.00    -0.216 NA
ATOM     11  N   UNL     1     -19.752  -1.502   0.741  0.00  0.00    -0.231 NA
ATOM     12  C   UNL     1     -17.292  -2.112   1.002  0.00  0.00    +0.147 A 
ATOM     13  C   UNL     1     -16.374  -1.122   2.892  0.00  0.00    +0.225 A 
ATOM     14  N   UNL     1     -16.222  -1.924   1.810  0.00  0.00    -0.219 NA
ATOM     15  N   UNL     1     -17.147  -2.952  -0.095  0.00  0.00    -0.341 N 
ATOM     16  H   UNL     1     -18.039  -3.317  -0.413  0.00  0.00    +0.144 HD
ATOM     17  H   UNL     1     -16.400  -3.619   0.054  0.00  0.00    +0.144 HD
ENDBRANCH   1   6
BRANCH   3  18
ATOM     18  O   UNL     1     -20.635   2.893   2.701  0.00  0.00    -0.385 OA
ATOM     19  H   UNL     1     -19.679   2.677   2.646  0.00  0.00    +0.210 HD
ENDBRANCH   3  18
BRANCH   5  20
ATOM     20  O   UNL     1     -21.131   2.838   5.268  0.00  0.00    -0.386 OA
ATOM     21  H   UNL     1     -21.684   3.526   5.689  0.00  0.00    +0.210 HD
ENDBRANCH   5  20
BRANCH   4  22
ATOM     22  C   UNL     1     -23.483  -0.045   4.842  0.00  0.00    +0.093 C 
BRANCH  22  23
ATOM     23  S   UNL     1     -24.566  -0.119   6.317  0.00  0.00    -0.209 S 
ATOM     24  C   UNL     1     -24.914   1.667   6.391  0.00  0.00    +0.073 C 
BRANCH  23  25
ATOM     25  C   UNL     1     -23.260  -0.096   7.601  0.00  0.00    +0.061 C 
BRANCH  25  26
ATOM     26  C   UNL     1     -22.852  -1.515   7.997  0.00  0.00    +0.040 C 
BRANCH  26  27
ATOM     27  CA  UNL     1     -23.243  -1.852   9.438  0.00  0.00    +0.166 C 
BRANCH  27  28
ATOM     28  C   UNL     1     -22.353  -0.999  10.419  0.00  0.00    +0.372 C 
ATOM     29  O   UNL     1     -21.103  -1.150  10.279  0.00  0.00    -0.245 OA
ATOM     30  OXT UNL     1     -22.998  -0.266  11.223  0.00  0.00    -0.245 OA
ENDBRANCH  27  28
BRANCH  27  31
ATOM     31  N   UNL     1     -24.687  -1.510   9.651  0.00  0.00    -0.318 NA
ATOM     32  H1  UNL     1     -25.188  -2.226   9.106  0.00  0.00    +0.119 HD
ATOM     33  H2  UNL     1     -24.850  -0.686   9.063  0.00  0.00    +0.119 HD
ENDBRANCH  27  31
ENDBRANCH  26  27
ENDBRANCH  25  26
ENDBRANCH  23  25
ENDBRANCH  22  23
ENDBRANCH   4  22
TORSDOF 10
ENDMDL
MODEL 5
REMARK VINA RESULT:    -6.308      2.071      2.538
REMARK INTER + INTRA:         -10.434
REMARK INTER:                  -9.349
REMARK INTRA:                  -1.085
REMARK UNBOUND:                -0.992
REMARK  Name = 
REMARK  11 active torsions:
REMARK  status: ('A' for Active; 'I' for Inactive)
REMARK    1  A    between atoms: N_1  and  C_3
REMARK    2  A    between atoms: C_8  and  O_14
REMARK    3  A    between atoms: C_12  and  C_17
REMARK    4  A    between atoms: C_13  and  O_18
REMARK    5  A    between atoms: C_17  and  S_19
REMARK    6  A    between atoms: S_19  and  C_20
REMARK    7  A    between atoms: S_19  and  C_21
REMARK    8  A    between atoms: C_20  and  C_22
REMARK    9  A    between atoms: C_22  and  CA_23
REMARK   10  A    between atoms: CA_23  and  C_24
REMARK   11  A    between atoms: CA_23  and  N_25
REMARK                            x       y       z     vdW  Elec       q    Type
REMARK                         _______ _______ _______ _____ _____    ______ ____
ROOT
ATOM      1  C   UNL     1      -4.193   9.671 -22.757  0.00  0.00    +0.253 C 
ATOM      2  O   UNL     1      -4.455   8.604 -23.692  0.00  0.00    -0.347 OA
ATOM      3  C   UNL     1      -5.440   9.755 -21.876  0.00  0.00    +0.195 C 
ATOM      4  C   UNL     1      -5.427   7.708 -23.109  0.00  0.00    +0.161 C 
ATOM      5  C   UNL     1      -5.771   8.277 -21.730  0.00  0.00    +0.177 C 
ENDROOT
BRANCH   1   6
ATOM      6  N   UNL     1      -3.892  10.879 -23.493  0.00  0.00    -0.286 N 
ATOM      7  C   UNL     1      -3.172  11.937 -23.014  0.00  0.00    +0.167 A 
ATOM      8  C   UNL     1      -4.208  11.150 -24.800  0.00  0.00    +0.203 A 
ATOM      9  C   UNL     1      -3.108  12.830 -24.074  0.00  0.00    +0.147 A 
ATOM     10  N   UNL     1      -2.626  12.086 -21.797  0.00  0.00    -0.216 NA
ATOM     11  N   UNL     1      -3.762  12.331 -25.181  0.00  0.00    -0.231 NA
ATOM     12  C   UNL     1      -2.393  14.021 -23.855  0.00  0.00    +0.147 A 
ATOM     13  C   UNL     1      -1.974  13.263 -21.700  0.00  0.00    +0.225 A 
ATOM     14  N   UNL     1      -1.819  14.221 -22.646  0.00  0.00    -0.219 NA
ATOM     15  N   UNL     1      -2.216  14.990 -24.835  0.00  0.00    -0.341 N 
ATOM     16  H   UNL     1      -2.347  14.615 -25.768  0.00  0.00    +0.144 HD
ATOM     17  H   UNL     1      -1.374  15.528 -24.667  0.00  0.00    +0.144 HD
ENDBRANCH   1   6
BRANCH   3  18
ATOM     18  O   UNL     1      -5.230  10.346 -20.595  0.00  0.00    -0.385 OA
ATOM     19  H   UNL     1      -5.331  11.312 -20.737  0.00  0.00    +0.210 HD
ENDBRANCH   3  18
BRANCH   5  20
ATOM     20  O   UNL     1      -4.888   7.756 -20.714  0.00  0.00    -0.386 OA
ATOM     21  H   UNL     1      -4.306   7.089 -21.129  0.00  0.00    +0.210 HD
ENDBRANCH   5  20
BRANCH   4  22
ATOM     22  C   UNL     1      -6.666   7.582 -24.005  0.00  0.00    +0.093 C 
BRANCH  22  23
ATOM     23  S   UNL     1      -6.461   6.384 -25.375  0.00  0.00    -0.209 S 
ATOM     24  C   UNL     1      -7.848   5.306 -24.897  0.00  0.00    +0.073 C 
BRANCH  23  25
ATOM     25  C   UNL     1      -5.160   5.340 -24.616  0.00  0.00    +0.061 C 
BRANCH  25  26
ATOM     26  C   UNL     1      -5.741   4.452 -23.515  0.00  0.00    +0.040 C 
BRANCH  26  27
ATOM     27  CA  UNL     1      -4.691   4.052 -22.475  0.00  0.00    +0.166 C 
BRANCH  27  28
ATOM     28  C   UNL     1      -5.342   4.123 -21.043  0.00  0.00    +0.372 C 
ATOM     29  O   UNL     1      -6.292   4.953 -20.925  0.00  0.00    -0.245 OA
ATOM     30  OXT UNL     1      -4.838   3.339 -20.187  0.00  0.00    -0.245 OA
ENDBRANCH  27  28
BRANCH  27  31
ATOM     31  N   UNL     1      -4.238   2.648 -22.747  0.00  0.00    -0.318 NA
ATOM     32  H1  UNL     1      -4.044   2.270 -21.810  0.00  0.00    +0.119 HD
ATOM     33  H2  UNL     1      -3.283   2.747 -23.106  0.00  0.00    +0.119 HD
ENDBRANCH  27  31
ENDBRANCH  26  27
ENDBRANCH  25  26
ENDBRANCH  23  25
ENDBRANCH  22  23
ENDBRANCH   4  22
TORSDOF 10
ENDMDL
MODEL 6
REMARK VINA RESULT:    -6.242     20.089     22.263
REMARK INTER + INTRA:         -10.336
REMARK INTER:                  -9.452
REMARK INTRA:                  -0.884
REMARK UNBOUND:                -0.992
REMARK  Name = 
REMARK  11 active torsions:
REMARK  status: ('A' for Active; 'I' for Inactive)
REMARK    1  A    between atoms: N_1  and  C_3
REMARK    2  A    between atoms: C_8  and  O_14
REMARK    3  A    between atoms: C_12  and  C_17
REMARK    4  A    between atoms: C_13  and  O_18
REMARK    5  A    between atoms: C_17  and  S_19
REMARK    6  A    between atoms: S_19  and  C_20
REMARK    7  A    between atoms: S_19  and  C_21
REMARK    8  A    between atoms: C_20  and  C_22
REMARK    9  A    between atoms: C_22  and  CA_23
REMARK   10  A    between atoms: CA_23  and  C_24
REMARK   11  A    between atoms: CA_23  and  N_25
REMARK                            x       y       z     vdW  Elec       q    Type
REMARK                         _______ _______ _______ _____ _____    ______ ____
ROOT
ATOM      1  C   UNL     1      -4.677 -12.159 -20.254  0.00  0.00    +0.253 C 
ATOM      2  O   UNL     1      -5.658 -13.216 -20.272  0.00  0.00    -0.347 OA
ATOM      3  C   UNL     1      -4.798 -11.515 -18.873  0.00  0.00    +0.195 C 
ATOM      4  C   UNL     1      -5.923 -13.623 -18.912  0.00  0.00    +0.161 C 
ATOM      5  C   UNL     1      -5.040 -12.750 -18.017  0.00  0.00    +0.177 C 
ENDROOT
BRANCH   1   6
ATOM      6  N   UNL     1      -4.930 -11.263 -21.361  0.00  0.00    -0.286 N 
ATOM      7  C   UNL     1      -3.984 -10.796 -22.231  0.00  0.00    +0.167 A 
ATOM      8  C   UNL     1      -6.146 -10.784 -21.776  0.00  0.00    +0.203 A 
ATOM      9  C   UNL     1      -4.689 -10.015 -23.135  0.00  0.00    +0.147 A 
ATOM     10  N   UNL     1      -2.664 -11.042 -22.231  0.00  0.00    -0.216 NA
ATOM     11  N   UNL     1      -6.037 -10.012 -22.839  0.00  0.00    -0.231 NA
ATOM     12  C   UNL     1      -3.947  -9.417 -24.169  0.00  0.00    +0.147 A 
ATOM     13  C   UNL     1      -2.057 -10.414 -23.259  0.00  0.00    +0.225 A 
ATOM     14  N   UNL     1      -2.613  -9.635 -24.220  0.00  0.00    -0.219 NA
ATOM     15  N   UNL     1      -4.525  -8.639 -25.165  0.00  0.00    -0.341 N 
ATOM     16  H   UNL     1      -5.517  -8.826 -25.264  0.00  0.00    +0.144 HD
ATOM     17  H   UNL     1      -3.964  -8.655 -26.009  0.00  0.00    +0.144 HD
ENDBRANCH   1   6
BRANCH   3  18
ATOM     18  O   UNL     1      -3.632 -10.824 -18.429  0.00  0.00    -0.385 OA
ATOM     19  H   UNL     1      -3.566 -10.032 -19.006  0.00  0.00    +0.210 HD
ENDBRANCH   3  18
BRANCH   5  20
ATOM     20  O   UNL     1      -3.749 -13.360 -17.800  0.00  0.00    -0.386 OA
ATOM     21  H   UNL     1      -3.226 -12.770 -17.223  0.00  0.00    +0.210 HD
ENDBRANCH   5  20
BRANCH   4  22
ATOM     22  C   UNL     1      -7.412 -13.473 -18.573  0.00  0.00    +0.093 C 
BRANCH  22  23
ATOM     23  S   UNL     1      -8.146 -14.971 -17.818  0.00  0.00    -0.209 S 
ATOM     24  C   UNL     1      -9.882 -14.470 -18.045  0.00  0.00    +0.073 C 
BRANCH  23  25
ATOM     25  C   UNL     1      -8.046 -14.454 -16.063  0.00  0.00    +0.061 C 
BRANCH  25  26
ATOM     26  C   UNL     1      -8.696 -13.086 -15.855  0.00  0.00    +0.040 C 
BRANCH  26  27
ATOM     27  CA  UNL     1      -7.881 -12.191 -14.916  0.00  0.00    +0.166 C 
BRANCH  27  28
ATOM     28  C   UNL     1      -8.685 -11.997 -13.576  0.00  0.00    +0.372 C 
ATOM     29  O   UNL     1      -9.567 -12.876 -13.346  0.00  0.00    -0.245 OA
ATOM     30  OXT UNL     1      -8.347 -10.987 -12.893  0.00  0.00    -0.245 OA
ENDBRANCH  27  28
BRANCH  27  31
ATOM     31  N   UNL     1      -6.569 -12.854 -14.619  0.00  0.00    -0.318 NA
ATOM     32  H1  UNL     1      -6.232 -12.358 -13.782  0.00  0.00    +0.119 HD
ATOM     33  H2  UNL     1      -5.923 -12.484 -15.324  0.00  0.00    +0.119 HD
ENDBRANCH  27  31
ENDBRANCH  26  27
ENDBRANCH  25  26
ENDBRANCH  23  25
ENDBRANCH  22  23
ENDBRANCH   4  22
TORSDOF 10
ENDMDL
MODEL 7
REMARK VINA RESULT:    -6.214     25.496     27.694
REMARK INTER + INTRA:         -10.293
REMARK INTER:                  -9.588
REMARK INTRA:                  -0.705
REMARK UNBOUND:                -0.992
REMARK  Name = 
REMARK  11 active torsions:
REMARK  status: ('A' for Active; 'I' for Inactive)
REMARK    1  A    between atoms: N_1  and  C_3
REMARK    2  A    between atoms: C_8  and  O_14
REMARK    3  A    between atoms: C_12  and  C_17
REMARK    4  A    between atoms: C_13  and  O_18
REMARK    5  A    between atoms: C_17  and  S_19
REMARK    6  A    between atoms: S_19  and  C_20
REMARK    7  A    between atoms: S_19  and  C_21
REMARK    8  A    between atoms: C_20  and  C_22
REMARK    9  A    between atoms: C_22  and  CA_23
REMARK   10  A    between atoms: CA_23  and  C_24
REMARK   11  A    between atoms: CA_23  and  N_25
REMARK                            x       y       z     vdW  Elec       q    Type
REMARK                         _______ _______ _______ _____ _____    ______ ____
ROOT
ATOM      1  C   UNL     1     -13.574 -12.580 -12.394  0.00  0.00    +0.253 C 
ATOM      2  O   UNL     1     -13.039 -13.323 -11.280  0.00  0.00    -0.347 OA
ATOM      3  C   UNL     1     -12.940 -11.191 -12.301  0.00  0.00    +0.195 C 
ATOM      4  C   UNL     1     -11.774 -12.738 -10.900  0.00  0.00    +0.161 C 
ATOM      5  C   UNL     1     -11.534 -11.563 -11.853  0.00  0.00    +0.177 C 
ENDROOT
BRANCH   1   6
ATOM      6  N   UNL     1     -15.018 -12.590 -12.318  0.00  0.00    -0.286 N 
ATOM      7  C   UNL     1     -15.862 -12.898 -13.348  0.00  0.00    +0.167 A 
ATOM      8  C   UNL     1     -15.788 -12.365 -11.205  0.00  0.00    +0.203 A 
ATOM      9  C   UNL     1     -17.134 -12.816 -12.801  0.00  0.00    +0.147 A 
ATOM     10  N   UNL     1     -15.544 -13.226 -14.611  0.00  0.00    -0.216 NA
ATOM     11  N   UNL     1     -17.076 -12.479 -11.464  0.00  0.00    -0.231 NA
ATOM     12  C   UNL     1     -18.211 -13.111 -13.656  0.00  0.00    +0.147 A 
ATOM     13  C   UNL     1     -16.652 -13.479 -15.337  0.00  0.00    +0.225 A 
ATOM     14  N   UNL     1     -17.947 -13.451 -14.939  0.00  0.00    -0.219 NA
ATOM     15  N   UNL     1     -19.536 -13.104 -13.236  0.00  0.00    -0.341 N 
ATOM     16  H   UNL     1     -19.616 -13.203 -12.230  0.00  0.00    +0.144 HD
ATOM     17  H   UNL     1     -20.101 -13.720 -13.808  0.00  0.00    +0.144 HD
ENDBRANCH   1   6
BRANCH   3  18
ATOM     18  O   UNL     1     -12.895 -10.469 -13.529  0.00  0.00    -0.385 OA
ATOM     19  H   UNL     1     -13.356  -9.621 -13.347  0.00  0.00    +0.210 HD
ENDBRANCH   3  18
BRANCH   5  20
ATOM     20  O   UNL     1     -10.824 -11.988 -13.037  0.00  0.00    -0.386 OA
ATOM     21  H   UNL     1     -10.147 -11.314 -13.243  0.00  0.00    +0.210 HD
ENDBRANCH   5  20
BRANCH   4  22
ATOM     22  C   UNL     1     -11.793 -12.292  -9.432  0.00  0.00    +0.093 C 
BRANCH  22  23
ATOM     23  S   UNL     1     -10.320 -12.828  -8.484  0.00  0.00    -0.209 S 
ATOM     24  C   UNL     1     -11.059 -14.359  -7.830  0.00  0.00    +0.073 C 
BRANCH  23  25
ATOM     25  C   UNL     1     -10.609 -11.837  -6.971  0.00  0.00    +0.061 C 
BRANCH  25  26
ATOM     26  C   UNL     1      -9.960 -12.492  -5.752  0.00  0.00    +0.040 C 
BRANCH  26  27
ATOM     27  CA  UNL     1      -8.431 -12.509  -5.845  0.00  0.00    +0.166 C 
BRANCH  27  28
ATOM     28  C   UNL     1      -7.845 -11.552  -4.740  0.00  0.00    +0.372 C 
ATOM     29  O   UNL     1      -6.800 -11.976  -4.162  0.00  0.00    -0.245 OA
ATOM     30  OXT UNL     1      -8.488 -10.477  -4.569  0.00  0.00    -0.245 OA
ENDBRANCH  27  28
BRANCH  27  31
ATOM     31  N   UNL     1      -7.939 -13.905  -5.607  0.00  0.00    -0.318 NA
ATOM     32  H1  UNL     1      -7.272 -14.061  -6.376  0.00  0.00    +0.119 HD
ATOM     33  H2  UNL     1      -8.710 -14.510  -5.909  0.00  0.00    +0.119 HD
ENDBRANCH  27  31
ENDBRANCH  26  27
ENDBRANCH  25  26
ENDBRANCH  23  25
ENDBRANCH  22  23
ENDBRANCH   4  22
TORSDOF 10
ENDMDL
MODEL 8
REMARK VINA RESULT:    -6.181     25.147     27.890
REMARK INTER + INTRA:         -10.244
REMARK INTER:                  -9.247
REMARK INTRA:                  -0.998
REMARK UNBOUND:                -0.992
REMARK  Name = 
REMARK  11 active torsions:
REMARK  status: ('A' for Active; 'I' for Inactive)
REMARK    1  A    between atoms: N_1  and  C_3
REMARK    2  A    between atoms: C_8  and  O_14
REMARK    3  A    between atoms: C_12  and  C_17
REMARK    4  A    between atoms: C_13  and  O_18
REMARK    5  A    between atoms: C_17  and  S_19
REMARK    6  A    between atoms: S_19  and  C_20
REMARK    7  A    between atoms: S_19  and  C_21
REMARK    8  A    between atoms: C_20  and  C_22
REMARK    9  A    between atoms: C_22  and  CA_23
REMARK   10  A    between atoms: CA_23  and  C_24
REMARK   11  A    between atoms: CA_23  and  N_25
REMARK                            x       y       z     vdW  Elec       q    Type
REMARK                         _______ _______ _______ _____ _____    ______ ____
ROOT
ATOM      1  C   UNL     1     -12.796 -12.634 -12.258  0.00  0.00    +0.253 C 
ATOM      2  O   UNL     1     -11.700 -13.335 -11.636  0.00  0.00    -0.347 OA
ATOM      3  C   UNL     1     -12.293 -11.207 -12.482  0.00  0.00    +0.195 C 
ATOM      4  C   UNL     1     -10.468 -12.669 -11.986  0.00  0.00    +0.161 C 
ATOM      5  C   UNL     1     -10.852 -11.487 -12.881  0.00  0.00    +0.177 C 
ENDROOT
BRANCH   1   6
ATOM      6  N   UNL     1     -13.963 -12.736 -11.409  0.00  0.00    -0.286 N 
ATOM      7  C   UNL     1     -15.258 -12.593 -11.825  0.00  0.00    +0.167 A 
ATOM      8  C   UNL     1     -13.990 -13.054 -10.076  0.00  0.00    +0.203 A 
ATOM      9  C   UNL     1     -16.021 -12.812 -10.688  0.00  0.00    +0.147 A 
ATOM     10  N   UNL     1     -15.706 -12.319 -13.061  0.00  0.00    -0.216 NA
ATOM     11  N   UNL     1     -15.219 -13.094  -9.601  0.00  0.00    -0.231 NA
ATOM     12  C   UNL     1     -17.417 -12.744 -10.840  0.00  0.00    +0.147 A 
ATOM     13  C   UNL     1     -17.054 -12.272 -13.085  0.00  0.00    +0.225 A 
ATOM     14  N   UNL     1     -17.924 -12.475 -12.066  0.00  0.00    -0.219 NA
ATOM     15  N   UNL     1     -18.306 -12.976  -9.798  0.00  0.00    -0.341 N 
ATOM     16  H   UNL     1     -17.880 -13.511  -9.048  0.00  0.00    +0.144 HD
ATOM     17  H   UNL     1     -19.200 -13.300 -10.147  0.00  0.00    +0.144 HD
ENDBRANCH   1   6
BRANCH   3  18
ATOM     18  O   UNL     1     -12.964 -10.490 -13.515  0.00  0.00    -0.385 OA
ATOM     19  H   UNL     1     -12.774  -9.543 -13.338  0.00  0.00    +0.210 HD
ENDBRANCH   3  18
BRANCH   5  20
ATOM     20  O   UNL     1     -10.877 -11.872 -14.273  0.00  0.00    -0.386 OA
ATOM     21  H   UNL     1      -9.965 -11.822 -14.619  0.00  0.00    +0.210 HD
ENDBRANCH   5  20
BRANCH   4  22
ATOM     22  C   UNL     1      -9.710 -12.217 -10.731  0.00  0.00    +0.093 C 
BRANCH  22  23
ATOM     23  S   UNL     1     -10.464 -12.805  -9.169  0.00  0.00    -0.209 S 
ATOM     24  C   UNL     1     -11.009 -11.167  -8.590  0.00  0.00    +0.073 C 
BRANCH  23  25
ATOM     25  C   UNL     1      -8.943 -12.854  -8.148  0.00  0.00    +0.061 C 
BRANCH  25  26
ATOM     26  C   UNL     1      -8.235 -14.202  -8.281  0.00  0.00    +0.040 C 
BRANCH  26  27
ATOM     27  CA  UNL     1      -8.585 -15.159  -7.138  0.00  0.00    +0.166 C 
BRANCH  27  28
ATOM     28  C   UNL     1      -8.166 -16.619  -7.552  0.00  0.00    +0.372 C 
ATOM     29  O   UNL     1      -9.030 -17.515  -7.313  0.00  0.00    -0.245 OA
ATOM     30  OXT UNL     1      -7.018 -16.717  -8.074  0.00  0.00    -0.245 OA
ENDBRANCH  27  28
BRANCH  27  31
ATOM     31  N   UNL     1      -7.831 -14.754  -5.907  0.00  0.00    -0.318 NA
ATOM     32  H1  UNL     1      -8.197 -13.815  -5.696  0.00  0.00    +0.119 HD
ATOM     33  H2  UNL     1      -6.892 -14.512  -6.242  0.00  0.00    +0.119 HD
ENDBRANCH  27  31
ENDBRANCH  26  27
ENDBRANCH  25  26
ENDBRANCH  23  25
ENDBRANCH  22  23
ENDBRANCH   4  22
TORSDOF 10
ENDMDL
MODEL 9
REMARK VINA RESULT:    -6.104     20.287     23.215
REMARK INTER + INTRA:         -10.128
REMARK INTER:                  -8.742
REMARK INTRA:                  -1.386
REMARK UNBOUND:                -0.992
REMARK  Name = 
REMARK  11 active torsions:
REMARK  status: ('A' for Active; 'I' for Inactive)
REMARK    1  A    between atoms: N_1  and  C_3
REMARK    2  A    between atoms: C_8  and  O_14
REMARK    3  A    between atoms: C_12  and  C_17
REMARK    4  A    between atoms: C_13  and  O_18
REMARK    5  A    between atoms: C_17  and  S_19
REMARK    6  A    between atoms: S_19  and  C_20
REMARK    7  A    between atoms: S_19  and  C_21
REMARK    8  A    between atoms: C_20  and  C_22
REMARK    9  A    between atoms: C_22  and  CA_23
REMARK   10  A    between atoms: CA_23  and  C_24
REMARK   11  A    between atoms: CA_23  and  N_25
REMARK                            x       y       z     vdW  Elec       q    Type
REMARK                         _______ _______ _______ _____ _____    ______ ____
ROOT
ATOM      1  C   UNL     1      -5.479 -12.341 -19.059  0.00  0.00    +0.253 C 
ATOM      2  O   UNL     1      -5.589 -12.057 -20.469  0.00  0.00    -0.347 OA
ATOM      3  C   UNL     1      -4.417 -13.436 -18.946  0.00  0.00    +0.195 C 
ATOM      4  C   UNL     1      -4.351 -12.430 -21.113  0.00  0.00    +0.161 C 
ATOM      5  C   UNL     1      -3.435 -12.974 -20.013  0.00  0.00    +0.177 C 
ENDROOT
BRANCH   1   6
ATOM      6  N   UNL     1      -6.781 -12.709 -18.550  0.00  0.00    -0.286 N 
ATOM      7  C   UNL     1      -7.151 -12.682 -17.234  0.00  0.00    +0.167 A 
ATOM      8  C   UNL     1      -7.881 -13.079 -19.281  0.00  0.00    +0.203 A 
ATOM      9  C   UNL     1      -8.483 -13.072 -17.232  0.00  0.00    +0.147 A 
ATOM     10  N   UNL     1      -6.407 -12.340 -16.170  0.00  0.00    -0.216 NA
ATOM     11  N   UNL     1      -8.926 -13.321 -18.515  0.00  0.00    -0.231 NA
ATOM     12  C   UNL     1      -9.129 -13.112 -15.984  0.00  0.00    +0.147 A 
ATOM     13  C   UNL     1      -7.126 -12.421 -15.032  0.00  0.00    +0.225 A 
ATOM     14  N   UNL     1      -8.427 -12.772 -14.878  0.00  0.00    -0.219 NA
ATOM     15  N   UNL     1     -10.469 -13.449 -15.834  0.00  0.00    -0.341 N 
ATOM     16  H   UNL     1     -10.989 -13.329 -16.697  0.00  0.00    +0.144 HD
ATOM     17  H   UNL     1     -10.857 -13.031 -14.998  0.00  0.00    +0.144 HD
ENDBRANCH   1   6
BRANCH   3  18
ATOM     18  O   UNL     1      -3.771 -13.514 -17.677  0.00  0.00    -0.385 OA
ATOM     19  H   UNL     1      -2.880 -13.126 -17.817  0.00  0.00    +0.210 HD
ENDBRANCH   3  18
BRANCH   5  20
ATOM     20  O   UNL     1      -2.647 -11.920 -19.420  0.00  0.00    -0.386 OA
ATOM     21  H   UNL     1      -3.185 -11.492 -18.725  0.00  0.00    +0.210 HD
ENDBRANCH   5  20
BRANCH   4  22
ATOM     22  C   UNL     1      -4.597 -13.463 -22.221  0.00  0.00    +0.093 C 
BRANCH  22  23
ATOM     23  S   UNL     1      -4.171 -12.857 -23.896  0.00  0.00    -0.209 S 
ATOM     24  C   UNL     1      -2.368 -13.043 -23.715  0.00  0.00    +0.073 C 
BRANCH  23  25
ATOM     25  C   UNL     1      -4.196 -11.060 -23.537  0.00  0.00    +0.061 C 
BRANCH  25  26
ATOM     26  C   UNL     1      -4.935 -10.291 -24.632  0.00  0.00    +0.040 C 
BRANCH  26  27
ATOM     27  CA  UNL     1      -6.277  -9.735 -24.148  0.00  0.00    +0.166 C 
BRANCH  27  28
ATOM     28  C   UNL     1      -7.436 -10.417 -24.970  0.00  0.00    +0.372 C 
ATOM     29  O   UNL     1      -8.051  -9.650 -25.769  0.00  0.00    -0.245 OA
ATOM     30  OXT UNL     1      -7.607 -11.647 -24.732  0.00  0.00    -0.245 OA
ENDBRANCH  27  28
BRANCH  27  31
ATOM     31  N   UNL     1      -6.446 -10.052 -22.693  0.00  0.00    -0.318 NA
ATOM     32  H1  UNL     1      -5.810 -10.847 -22.542  0.00  0.00    +0.119 HD
ATOM     33  H2  UNL     1      -7.352 -10.528 -22.632  0.00  0.00    +0.119 HD
ENDBRANCH  27  31
ENDBRANCH  26  27
ENDBRANCH  25  26
ENDBRANCH  23  25
ENDBRANCH  22  23
ENDBRANCH   4  22
TORSDOF 10
ENDMDL
