REMARK  Name = 
REMARK  14 active torsions:
REMARK  status: ('A' for Active; 'I' for Inactive)
REMARK    1  A    between atoms: N_7  and  C_19
REMARK    2  A    between atoms: C_12  and  C_18
REMARK    3  A    between atoms: C_13  and  C_17
REMARK    4  A    between atoms: C_19  and  C_20
REMARK    5  A    between atoms: C_20  and  C_21
REMARK    6  A    between atoms: C_20  and  O_25
REMARK    7  A    between atoms: C_21  and  C_22
REMARK    8  A    between atoms: C_21  and  O_27
REMARK    9  A    between atoms: C_22  and  C_23
REMARK   10  A    between atoms: C_22  and  O_26
REMARK   11  A    between atoms: C_23  and  O_24
REMARK   12  A    between atoms: O_24  and  P_28
REMARK   13  A    between atoms: P_28  and  O_29
REMARK   14  A    between atoms: P_28  and  O_31
REMARK                            x       y       z     vdW  Elec       q    Type
REMARK                         _______ _______ _______ _____ _____    ______ ____
ROOT
ATOM      1  N   UNL     1      -3.441  -1.053  -0.515  0.00  0.00    -0.272 N 
ATOM      2  C   UNL     1      -3.498   0.296  -0.735  0.00  0.00    +0.351 A 
ATOM      3  N   UNL     1      -2.362   1.051  -0.669  0.00  0.00    -0.173 NA
ATOM      4  C   UNL     1      -1.191   0.559  -0.407  0.00  0.00    +0.170 A 
ATOM      5  C   UNL     1      -1.067  -0.935  -0.213  0.00  0.00    +0.171 A 
ATOM      6  C   UNL     1      -2.332  -1.749  -0.148  0.00  0.00    +0.282 A 
ATOM      7  N   UNL     1      -0.041   1.332  -0.249  0.00  0.00    -0.320 N 
ATOM      8  C   UNL     1       1.214   0.673  -0.187  0.00  0.00    +0.069 A 
ATOM      9  C   UNL     1       1.243  -0.735  -0.118  0.00  0.00    +0.089 A 
ATOM     10  N   UNL     1       0.081  -1.525  -0.098  0.00  0.00    -0.237 NA
ATOM     11  C   UNL     1       2.447   1.349  -0.198  0.00  0.00    +0.031 A 
ATOM     12  C   UNL     1       3.680   0.681  -0.083  0.00  0.00    -0.045 A 
ATOM     13  C   UNL     1       3.692  -0.718  -0.027  0.00  0.00    -0.045 A 
ATOM     14  C   UNL     1       2.470  -1.406  -0.046  0.00  0.00    +0.033 A 
ATOM     15  O   UNL     1      -2.359  -2.907   0.234  0.00  0.00    -0.265 OA
ATOM     16  O   UNL     1      -4.595   0.805  -0.924  0.00  0.00    -0.245 OA
ATOM     17  C   UNL     1       4.955  -1.528   0.037  0.00  0.00    +0.044 C 
ATOM     18  C   UNL     1       4.938   1.504  -0.026  0.00  0.00    +0.044 C 
ATOM     19  H   UNL     1      -4.327  -1.527  -0.467  0.00  0.00    +0.174 HD
ENDROOT
BRANCH   7  20
ATOM     20  C   UNL     1      -0.060   2.795  -0.116  0.00  0.00    +0.158 C 
BRANCH  20  21
ATOM     21  C   UNL     1      -1.250   3.419   0.632  0.00  0.00    +0.165 C 
BRANCH  21  22
ATOM     22  O   UNL     1      -1.060   4.850   0.664  0.00  0.00    -0.387 OA
ATOM     23  H   UNL     1      -0.354   5.060   1.303  0.00  0.00    +0.210 HD
ENDBRANCH  21  22
BRANCH  21  24
ATOM     24  C   UNL     1      -1.486   2.925   2.083  0.00  0.00    +0.175 C 
BRANCH  24  25
ATOM     25  O   UNL     1      -1.546   1.499   2.228  0.00  0.00    -0.387 OA
ATOM     26  H   UNL     1      -2.473   1.213   2.281  0.00  0.00    +0.210 HD
ENDBRANCH  24  25
BRANCH  24  27
ATOM     27  C   UNL     1      -2.744   3.579   2.709  0.00  0.00    +0.172 C 
BRANCH  27  28
ATOM     28  O   UNL     1      -2.899   3.104   4.061  0.00  0.00    -0.387 OA
ATOM     29  H   UNL     1      -2.562   2.192   4.114  0.00  0.00    +0.210 HD
ENDBRANCH  27  28
BRANCH  27  30
ATOM     30  C   UNL     1      -4.048   3.311   1.930  0.00  0.00    +0.206 C 
BRANCH  30  31
ATOM     31  O   UNL     1      -5.084   4.117   2.469  0.00  0.00    -0.284 OA
BRANCH  31  32
ATOM     32  P   UNL     1      -6.592   3.610   2.395  0.00  0.00    +0.472 P 
ATOM     33  O   UNL     1      -7.629   4.517   2.963  0.00  0.00    -0.228 OA
BRANCH  32  34
ATOM     34  O   UNL     1      -6.585   2.196   3.141  0.00  0.00    -0.303 OA
ATOM     35  H   UNL     1      -6.984   2.306   4.025  0.00  0.00    +0.222 HD
ENDBRANCH  32  34
BRANCH  32  36
ATOM     36  O   UNL     1      -6.884   3.176   0.890  0.00  0.00    -0.303 OA
ATOM     37  H   UNL     1      -7.823   2.946   0.776  0.00  0.00    +0.222 HD
ENDBRANCH  32  36
ENDBRANCH  31  32
ENDBRANCH  30  31
ENDBRANCH  27  30
ENDBRANCH  24  27
ENDBRANCH  21  24
ENDBRANCH  20  21
ENDBRANCH   7  20
TORSDOF 12
