REMARK  Name = 5281377
REMARK  10 active torsions:
REMARK  status: ('A' for Active; 'I' for Inactive)
REMARK    1  A    between atoms: O_2  and  C_15
REMARK    2  A    between atoms: O_2  and  C_17
REMARK    3  A    between atoms: O_3  and  C_11
REMARK    4  A    between atoms: O_4  and  C_12
REMARK    5  A    between atoms: O_5  and  C_13
REMARK    6  A    between atoms: O_6  and  C_16
REMARK    7  A    between atoms: O_8  and  C_22
REMARK    8  A    between atoms: O_10  and  C_31
REMARK    9  A    between atoms: C_14  and  C_16
REMARK   10  A    between atoms: C_24  and  C_26
REMARK                            x       y       z     vdW  Elec       q    Type
REMARK                         _______ _______ _______ _____ _____    ______ ____
ROOT
ATOM      1  O   UNL     1       2.542   4.688   4.357  0.00  0.00    +0.000 OA
ATOM      2  O   UNL     1       3.185   1.440   6.738  0.00  0.00    +0.000 OA
ATOM      3  C   UNL     1       2.503   2.135   1.742  0.00  0.00    +0.000 A 
ATOM      4  C   UNL     1       2.427   3.368   2.397  0.00  0.00    +0.000 A 
ATOM      5  C   UNL     1       2.838   0.995   2.473  0.00  0.00    +0.000 A 
ATOM      6  C   UNL     1       2.631   3.439   3.784  0.00  0.00    +0.000 A 
ATOM      7  C   UNL     1       2.897   2.285   4.526  0.00  0.00    +0.000 A 
ATOM      8  C   UNL     1       3.000   1.062   3.856  0.00  0.00    +0.000 A 
ATOM      9  C   UNL     1       3.055   2.405   5.996  0.00  0.00    +0.000 A 
ATOM     10  C   UNL     1       3.031   3.783   6.551  0.00  0.00    +0.000 A 
ATOM     11  C   UNL     1       2.781   4.792   5.706  0.00  0.00    +0.000 A 
ENDROOT
BRANCH  10  12
ATOM     12  C   UNL     1       3.263   4.036   7.979  0.00  0.00    +0.000 A 
ATOM     13  C   UNL     1       2.193   4.023   8.885  0.00  0.00    +0.000 A 
ATOM     14  C   UNL     1       4.557   4.289   8.453  0.00  0.00    +0.000 A 
ATOM     15  C   UNL     1       2.411   4.269  10.244  0.00  0.00    +0.000 A 
ATOM     16  C   UNL     1       4.775   4.534   9.811  0.00  0.00    +0.000 A 
ATOM     17  C   UNL     1       3.702   4.528  10.694  0.00  0.00    +0.000 A 
BRANCH  17  18
ATOM     18  O   UNL     1       3.959   4.782  12.008  0.00  0.00    +0.000 OA
ATOM     19  H   UNL     1       3.123   4.746  12.501  0.00  0.00    +0.000 HD
ENDBRANCH  17  18
ENDBRANCH  10  12
BRANCH   8  20
ATOM     20  O   UNL     1       3.249  -0.098   4.530  0.00  0.00    +0.000 OA
ATOM     21  H   UNL     1       3.143  -0.867   3.949  0.00  0.00    +0.000 HD
ENDBRANCH   8  20
BRANCH   3  22
ATOM     22  O   UNL     1       2.245   2.124   0.394  0.00  0.00    +0.000 OA
BRANCH  22  28
ATOM     23  O   UNL     1       2.712  -0.025  -0.481  0.00  0.00    +0.000 OA
ATOM     24  C   UNL     1       0.197  -0.130  -1.859  0.00  0.00    +0.000 C 
ATOM     25  C   UNL     1       1.319  -1.144  -2.141  0.00  0.00    +0.000 C 
ATOM     26  C   UNL     1       0.765   1.196  -1.315  0.00  0.00    +0.000 C 
ATOM     27  C   UNL     1       2.186  -1.300  -0.889  0.00  0.00    +0.000 C 
ATOM     28  C   UNL     1       1.677   0.894  -0.103  0.00  0.00    +0.000 C 
BRANCH  24  29
ATOM     29  O   UNL     1      -0.587   0.077  -3.038  0.00  0.00    +0.000 OA
ATOM     30  H   UNL     1      -0.028   0.505  -3.711  0.00  0.00    +0.000 HD
ENDBRANCH  24  29
BRANCH  25  31
ATOM     31  O   UNL     1       0.802  -2.411  -2.547  0.00  0.00    +0.000 OA
ATOM     32  H   UNL     1      -0.060  -2.562  -2.120  0.00  0.00    +0.000 HD
ENDBRANCH  25  31
BRANCH  26  33
ATOM     33  O   UNL     1      -0.304   2.086  -0.963  0.00  0.00    +0.000 OA
ATOM     34  H   UNL     1      -0.883   1.651  -0.314  0.00  0.00    +0.000 HD
ENDBRANCH  26  33
BRANCH  27  35
ATOM     35  C   UNL     1       3.359  -2.254  -1.140  0.00  0.00    +0.000 C 
BRANCH  35  36
ATOM     36  O   UNL     1       4.113  -2.393   0.066  0.00  0.00    +0.000 OA
ATOM     37  H   UNL     1       4.441  -1.498   0.273  0.00  0.00    +0.000 HD
ENDBRANCH  35  36
ENDBRANCH  27  35
ENDBRANCH  22  28
ENDBRANCH   3  22
TORSDOF 10
