REMARK  Name = 
REMARK  17 active torsions:
REMARK  status: ('A' for Active; 'I' for Inactive)
REMARK    1  A    between atoms: C_1  and  N_2
REMARK    2  A    between atoms: C_4  and  O_9
REMARK    3  A    between atoms: C_7  and  C_13
REMARK    4  A    between atoms: C_8  and  O_14
REMARK    5  A    between atoms: C_13  and  O_16
REMARK    6  A    between atoms: O_16  and  P_18
REMARK    7  A    between atoms: P_18  and  O_19
REMARK    8  A    between atoms: P_18  and  O_20
REMARK    9  A    between atoms: O_19  and  P_22
REMARK   10  A    between atoms: P_22  and  O_23
REMARK   11  A    between atoms: P_22  and  O_24
REMARK   12  A    between atoms: O_23  and  C_26
REMARK   13  A    between atoms: C_28  and  O_31
REMARK   14  A    between atoms: C_29  and  C_33
REMARK   15  A    between atoms: C_30  and  O_34
REMARK   16  A    between atoms: C_32  and  O_35
REMARK   17  A    between atoms: C_33  and  O_36
REMARK                            x       y       z     vdW  Elec       q    Type
REMARK                         _______ _______ _______ _____ _____    ______ ____
ROOT
ATOM      1  P   UNL     1       2.555  -2.232  -3.870  0.00  0.00    +0.483 P 
ATOM      2  O   UNL     1       3.245  -2.331  -5.252  0.00  0.00    -0.227 OA
ENDROOT
BRANCH   1   3
ATOM      3  O   UNL     1       1.035  -2.361  -4.435  0.00  0.00    -0.302 OA
ATOM      4  H   UNL     1       0.638  -1.511  -4.712  0.00  0.00    +0.222 HD
ENDBRANCH   1   3
BRANCH   1   5
ATOM      5  O   UNL     1       2.910  -3.900  -3.574  0.00  0.00    -0.186 OA
BRANCH   5   6
ATOM      6  P   UNL     1       1.688  -4.577  -2.554  0.00  0.00    +0.486 P 
ATOM      7  O   UNL     1       0.595  -5.184  -1.641  0.00  0.00    -0.227 OA
BRANCH   6   8
ATOM      8  O   UNL     1       2.866  -5.612  -2.045  0.00  0.00    -0.302 OA
ATOM      9  H   UNL     1       3.565  -5.211  -1.486  0.00  0.00    +0.222 HD
ENDBRANCH   6   8
BRANCH   6  10
ATOM     10  O   UNL     1       1.342  -5.495  -3.895  0.00  0.00    -0.254 OA
BRANCH  10  11
ATOM     11  C   UNL     1       0.107  -6.171  -4.007  0.00  0.00    +0.294 C 
ATOM     12  O   UNL     1      -0.937  -5.238  -4.275  0.00  0.00    -0.331 OA
ATOM     13  C   UNL     1       0.186  -7.216  -5.138  0.00  0.00    +0.202 C 
ATOM     14  C   UNL     1      -0.706  -4.501  -5.498  0.00  0.00    +0.260 C 
ATOM     15  C   UNL     1       0.363  -6.509  -6.488  0.00  0.00    +0.179 C 
ATOM     16  C   UNL     1      -0.722  -5.431  -6.706  0.00  0.00    +0.185 C 
BRANCH  16  17
ATOM     17  O   UNL     1      -0.424  -4.768  -7.942  0.00  0.00    -0.386 OA
ATOM     18  H   UNL     1       0.520  -4.525  -7.957  0.00  0.00    +0.210 HD
ENDBRANCH  16  17
BRANCH  15  19
ATOM     19  O   UNL     1       0.319  -7.450  -7.568  0.00  0.00    -0.386 OA
ATOM     20  H   UNL     1       0.239  -6.931  -8.390  0.00  0.00    +0.210 HD
ENDBRANCH  15  19
BRANCH  14  21
ATOM     21  C   UNL     1      -1.698  -3.340  -5.442  0.00  0.00    +0.337 C 
ATOM     22  O   UNL     1      -1.817  -2.454  -6.272  0.00  0.00    -0.248 OA
BRANCH  21  23
ATOM     23  O   UNL     1      -2.359  -3.291  -4.247  0.00  0.00    -0.479 OA
ATOM     24  H   UNL     1      -2.065  -4.059  -3.699  0.00  0.00    +0.295 HD
ENDBRANCH  21  23
ENDBRANCH  14  21
BRANCH  13  25
ATOM     25  O   UNL     1       1.250  -8.144  -4.896  0.00  0.00    -0.384 OA
ATOM     26  H   UNL     1       2.065  -7.622  -4.778  0.00  0.00    +0.210 HD
ENDBRANCH  13  25
ENDBRANCH  10  11
ENDBRANCH   6  10
ENDBRANCH   5   6
ENDBRANCH   1   5
BRANCH   1  27
ATOM     27  O   UNL     1       1.784  -2.123  -2.325  0.00  0.00    -0.284 OA
BRANCH  27  28
ATOM     28  C   UNL     1       2.725  -2.196  -1.225  0.00  0.00    +0.206 C 
BRANCH  28  32
ATOM     29  C   UNL     1       6.086  -2.144  -0.563  0.00  0.00    +0.255 C 
ATOM     30  O   UNL     1       4.789  -1.728  -0.074  0.00  0.00    -0.346 OA
ATOM     31  C   UNL     1       5.991  -2.298  -2.072  0.00  0.00    +0.195 C 
ATOM     32  C   UNL     1       3.972  -1.288  -1.197  0.00  0.00    +0.178 C 
ATOM     33  C   UNL     1       4.942  -1.255  -2.383  0.00  0.00    +0.178 C 
BRANCH  29  34
ATOM     34  N   UNL     1       6.531  -3.361   0.128  0.00  0.00    -0.271 N 
ATOM     35  C   UNL     1       5.811  -4.539  -0.001  0.00  0.00    +0.331 A 
ATOM     36  C   UNL     1       7.742  -3.324   0.810  0.00  0.00    +0.098 A 
ATOM     37  N   UNL     1       6.346  -5.639   0.606  0.00  0.00    -0.275 N 
ATOM     38  O   UNL     1       4.774  -4.643  -0.637  0.00  0.00    -0.246 OA
ATOM     39  C   UNL     1       8.263  -4.417   1.386  0.00  0.00    +0.088 A 
ATOM     40  C   UNL     1       7.530  -5.689   1.286  0.00  0.00    +0.254 A 
ATOM     41  O   UNL     1       7.982  -6.720   1.766  0.00  0.00    -0.268 OA
ATOM     42  H   UNL     1       5.849  -6.515   0.509  0.00  0.00    +0.173 HD
ENDBRANCH  29  34
BRANCH  33  43
ATOM     43  O   UNL     1       5.571   0.034  -2.503  0.00  0.00    -0.386 OA
ATOM     44  H   UNL     1       5.496   0.514  -1.663  0.00  0.00    +0.210 HD
ENDBRANCH  33  43
BRANCH  31  45
ATOM     45  O   UNL     1       7.214  -2.014  -2.751  0.00  0.00    -0.385 OA
ATOM     46  H   UNL     1       7.140  -1.093  -3.081  0.00  0.00    +0.210 HD
ENDBRANCH  31  45
ENDBRANCH  28  32
ENDBRANCH  27  28
ENDBRANCH   1  27
TORSDOF 17
