REMARK  Name = 
REMARK  11 active torsions:
REMARK  status: ('A' for Active; 'I' for Inactive)
REMARK    1  A    between atoms: C_4  and  C_24
REMARK    2  A    between atoms: C_5  and  C_25
REMARK    3  A    between atoms: N_10  and  C_15
REMARK    4  A    between atoms: C_15  and  C_16
REMARK    5  A    between atoms: C_16  and  C_17
REMARK    6  A    between atoms: C_16  and  O_18
REMARK    7  A    between atoms: C_17  and  O_19
REMARK    8  A    between atoms: C_17  and  C_20
REMARK    9  A    between atoms: C_20  and  O_21
REMARK   10  A    between atoms: C_20  and  C_22
REMARK   11  A    between atoms: C_22  and  O_23
REMARK                            x       y       z     vdW  Elec       q    Type
REMARK                         _______ _______ _______ _____ _____    ______ ____
ROOT
ATOM      1  C   UNL     1      17.434 -19.324   0.000  0.00  0.00    +0.097 A 
ATOM      2  C   UNL     1      17.434 -17.924   0.000  0.00  0.00    +0.079 A 
ATOM      3  C   UNL     1      16.244 -17.224   0.000  0.00  0.00    +0.014 A 
ATOM      4  C   UNL     1      14.983 -17.924   0.000  0.00  0.00    -0.024 A 
ATOM      5  C   UNL     1      14.983 -19.324   0.000  0.00  0.00    -0.024 A 
ATOM      6  C   UNL     1      16.244 -20.025   0.000  0.00  0.00    +0.016 A 
ATOM      7  N   UNL     1      18.647 -20.025   0.000  0.00  0.00    -0.236 NA
ATOM      8  C   UNL     1      19.860 -19.324   0.000  0.00  0.00    +0.173 A 
ATOM      9  C   UNL     1      19.860 -17.924   0.000  0.00  0.00    +0.171 A 
ATOM     10  N   UNL     1      18.647 -17.224   0.000  0.00  0.00    -0.307 N 
ATOM     11  C   UNL     1      21.073 -20.025   0.000  0.00  0.00    +0.304 A 
ATOM     12  N   UNL     1      22.286 -19.324   0.000  0.00  0.00    -0.150 N 
ATOM     13  C   UNL     1      22.286 -17.924   0.000  0.00  0.00    +0.373 A 
ATOM     14  N   UNL     1      21.073 -17.224   0.000  0.00  0.00    -0.172 NA
ATOM     15  C   UNL     1      13.776 -17.214   0.000  0.00  0.00    +0.031 C 
ATOM     16  C   UNL     1      13.776 -20.035   0.000  0.00  0.00    +0.031 C 
ATOM     17  O   UNL     1      21.073 -21.425   0.000  0.00  0.00    -0.263 OA
ATOM     18  O   UNL     1      23.484 -17.232   0.000  0.00  0.00    -0.242 OA
ATOM     19  H   UNL     1      23.139 -19.817   0.000  0.00  0.00    +0.000 HD
ENDROOT
BRANCH  10  20
ATOM     20  C   UNL     1      18.647 -15.823   0.000  0.00  0.00    +0.143 C 
BRANCH  20  21
ATOM     21  C   UNL     1      17.418 -15.113   0.000  0.00  0.00    +0.207 C 
BRANCH  21  22
ATOM     22  O   UNL     1      16.213 -15.809   0.000  0.00  0.00    -0.218 OA
ATOM     23  H   UNL     1      15.373 -15.323   0.000  0.00  0.00    +0.000 HD
ENDBRANCH  21  22
BRANCH  21  24
ATOM     24  C   UNL     1      17.418 -13.722   0.000  0.00  0.00    +0.217 C 
BRANCH  24  25
ATOM     25  O   UNL     1      18.643 -13.015   0.000  0.00  0.00    -0.218 OA
ATOM     26  H   UNL     1      19.483 -13.500   0.000  0.00  0.00    +0.000 HD
ENDBRANCH  24  25
BRANCH  24  27
ATOM     27  C   UNL     1      16.217 -13.029   0.000  0.00  0.00    +0.217 C 
BRANCH  27  28
ATOM     28  O   UNL     1      15.027 -13.716   0.000  0.00  0.00    -0.217 OA
ATOM     29  H   UNL     1      14.187 -13.231   0.000  0.00  0.00    +0.000 HD
ENDBRANCH  27  28
BRANCH  27  30
ATOM     30  C   UNL     1      16.218 -11.622   0.000  0.00  0.00    +0.217 C 
BRANCH  30  31
ATOM     31  O   UNL     1      15.024 -10.933   0.000  0.00  0.00    -0.217 OA
ATOM     32  H   UNL     1      15.024  -9.963   0.000  0.00  0.00    +0.000 HD
ENDBRANCH  30  31
ENDBRANCH  27  30
ENDBRANCH  24  27
ENDBRANCH  21  24
ENDBRANCH  20  21
ENDBRANCH  10  20
TORSDOF 9
