REMARK  Name = 
REMARK  1 active torsions:
REMARK  status: ('A' for Active; 'I' for Inactive)
REMARK    1  A    between atoms: C_1  and  C_4
REMARK                            x       y       z     vdW  Elec       q    Type
REMARK                         _______ _______ _______ _____ _____    ______ ____
ROOT
ATOM      1  C   UNL     1       0.660   1.271   0.007  0.00  0.00    +0.055 A 
ATOM      2  C   UNL     1       1.424   0.099   0.001  0.00  0.00    +0.016 A 
ATOM      3  C   UNL     1      -0.721   1.129   0.004  0.00  0.00    +0.123 A 
ATOM      4  C   UNL     1       0.790  -1.143   0.000  0.00  0.00    +0.020 A 
ATOM      5  N   UNL     1      -1.367  -0.065   0.004  0.00  0.00    -0.263 NA
ATOM      6  C   UNL     1      -0.595  -1.173   0.004  0.00  0.00    +0.111 A 
ENDROOT
BRANCH   1   7
ATOM      7  C   UNL     1       1.350   2.585   0.018  0.00  0.00    +0.243 C 
ATOM      8  N   UNL     1       0.599   3.729   0.023  0.00  0.00    -0.325 N 
ATOM      9  O   UNL     1       2.574   2.657   0.025  0.00  0.00    -0.270 OA
ATOM     10  H   UNL     1      -0.406   3.782   0.023  0.00  0.00    +0.145 HD
ATOM     11  H   UNL     1       1.110   4.603   0.038  0.00  0.00    +0.145 HD
ENDBRANCH   1   7
TORSDOF 1
