REMARK  Name = 
REMARK  14 active torsions:
REMARK  status: ('A' for Active; 'I' for Inactive)
REMARK    1  A    between atoms: C_1  and  N_2
REMARK    2  A    between atoms: C_4  and  O_9
REMARK    3  A    between atoms: C_7  and  C_13
REMARK    4  A    between atoms: C_8  and  O_14
REMARK    5  A    between atoms: C_13  and  O_16
REMARK    6  A    between atoms: O_16  and  P_18
REMARK    7  A    between atoms: P_18  and  O_19
REMARK    8  A    between atoms: P_18  and  O_20
REMARK    9  A    between atoms: O_19  and  P_22
REMARK   10  A    between atoms: P_22  and  O_23
REMARK   11  A    between atoms: P_22  and  O_24
REMARK   12  A    between atoms: O_23  and  P_26
REMARK   13  A    between atoms: P_26  and  O_27
REMARK   14  A    between atoms: P_26  and  O_28
REMARK                            x       y       z     vdW  Elec       q    Type
REMARK                         _______ _______ _______ _____ _____    ______ ____
ROOT
ATOM      1  C   UNL     1       0.406   1.262   0.443  0.00  0.00    +0.255 C 
ATOM      2  O   UNL     1       1.644   0.558   0.215  0.00  0.00    -0.346 OA
ATOM      3  C   UNL     1      -0.593   0.559  -0.492  0.00  0.00    +0.195 C 
ATOM      4  C   UNL     1       1.373  -0.762  -0.301  0.00  0.00    +0.178 C 
ATOM      5  C   UNL     1      -0.146  -0.890  -0.379  0.00  0.00    +0.178 C 
ENDROOT
BRANCH   1   6
ATOM      6  N   UNL     1       0.593   2.704   0.272  0.00  0.00    -0.271 N 
ATOM      7  C   UNL     1       1.631   3.311   0.986  0.00  0.00    +0.331 A 
ATOM      8  C   UNL     1      -0.366   3.480  -0.362  0.00  0.00    +0.098 A 
ATOM      9  N   UNL     1       1.729   4.674   0.859  0.00  0.00    -0.275 N 
ATOM     10  O   UNL     1       2.410   2.720   1.734  0.00  0.00    -0.246 OA
ATOM     11  C   UNL     1      -0.322   4.815  -0.372  0.00  0.00    +0.088 A 
ATOM     12  C   UNL     1       0.847   5.494   0.216  0.00  0.00    +0.254 A 
ATOM     13  O   UNL     1       1.006   6.706   0.112  0.00  0.00    -0.268 OA
ATOM     14  H   UNL     1       2.544   5.105   1.261  0.00  0.00    +0.173 HD
ENDBRANCH   1   6
BRANCH   3  15
ATOM     15  O   UNL     1      -1.957   0.719  -0.115  0.00  0.00    -0.385 OA
ATOM     16  H   UNL     1      -2.123   0.061   0.592  0.00  0.00    +0.210 HD
ENDBRANCH   3  15
BRANCH   5  17
ATOM     17  O   UNL     1      -0.709  -1.450   0.820  0.00  0.00    -0.386 OA
ATOM     18  H   UNL     1      -0.088  -1.313   1.559  0.00  0.00    +0.210 HD
ENDBRANCH   5  17
BRANCH   4  19
ATOM     19  C   UNL     1       2.038  -0.879  -1.671  0.00  0.00    +0.206 C 
BRANCH  19  20
ATOM     20  O   UNL     1       3.459  -0.788  -1.539  0.00  0.00    -0.284 OA
BRANCH  20  21
ATOM     21  P   UNL     1       4.278  -0.915  -3.058  0.00  0.00    +0.483 P 
ATOM     22  O   UNL     1       5.010  -1.028  -4.417  0.00  0.00    -0.227 OA
BRANCH  21  23
ATOM     23  O   UNL     1       5.649  -0.956  -2.161  0.00  0.00    -0.302 OA
ATOM     24  H   UNL     1       5.756  -1.782  -1.662  0.00  0.00    +0.222 HD
ENDBRANCH  21  23
BRANCH  21  25
ATOM     25  O   UNL     1       4.138   0.704  -3.142  0.00  0.00    -0.186 OA
BRANCH  25  26
ATOM     26  P   UNL     1       3.362   1.376  -4.359  0.00  0.00    +0.492 P 
ATOM     27  O   UNL     1       1.983   0.859  -4.597  0.00  0.00    -0.226 OA
BRANCH  26  28
ATOM     28  O   UNL     1       4.398   1.159  -5.579  0.00  0.00    -0.302 OA
ATOM     29  H   UNL     1       4.869   0.292  -5.507  0.00  0.00    +0.222 HD
ENDBRANCH  26  28
BRANCH  26  30
ATOM     30  O   UNL     1       3.537   2.927  -4.073  0.00  0.00    -0.186 OA
BRANCH  30  31
ATOM     31  P   UNL     1       2.429   3.852  -3.119  0.00  0.00    +0.481 P 
ATOM     32  O   UNL     1       1.437   4.679  -2.265  0.00  0.00    -0.227 OA
BRANCH  31  33
ATOM     33  O   UNL     1       3.306   3.347  -1.840  0.00  0.00    -0.302 OA
ATOM     34  H   UNL     1       4.257   3.324  -2.053  0.00  0.00    +0.222 HD
ENDBRANCH  31  33
BRANCH  31  35
ATOM     35  O   UNL     1       3.334   5.158  -3.497  0.00  0.00    -0.302 OA
ATOM     36  H   UNL     1       2.740   5.930  -3.566  0.00  0.00    +0.222 HD
ENDBRANCH  31  35
ENDBRANCH  30  31
ENDBRANCH  26  30
ENDBRANCH  25  26
ENDBRANCH  21  25
ENDBRANCH  20  21
ENDBRANCH  19  20
ENDBRANCH   4  19
TORSDOF 14
