REMARK  Name = 
REMARK  11 active torsions:
REMARK  status: ('A' for Active; 'I' for Inactive)
REMARK    1  A    between atoms: N_1  and  C_3
REMARK    2  A    between atoms: C_8  and  O_14
REMARK    3  A    between atoms: C_12  and  C_18
REMARK    4  A    between atoms: C_13  and  O_19
REMARK    5  A    between atoms: C_18  and  O_20
REMARK    6  A    between atoms: O_20  and  P_21
REMARK    7  A    between atoms: P_21  and  O_22
REMARK    8  A    between atoms: P_21  and  O_23
REMARK    9  A    between atoms: O_22  and  P_25
REMARK   10  A    between atoms: P_25  and  O_26
REMARK   11  A    between atoms: P_25  and  O_27
REMARK                            x       y       z     vdW  Elec       q    Type
REMARK                         _______ _______ _______ _____ _____    ______ ____
ROOT
ATOM      1  C   UNL     1       2.008  -2.466   0.004  0.00  0.00    +0.253 C 
ATOM      2  O   UNL     1       2.784  -2.775   1.202  0.00  0.00    -0.346 OA
ATOM      3  C   UNL     1       2.913  -2.748  -1.199  0.00  0.00    +0.195 C 
ATOM      4  C   UNL     1       3.997  -3.455   0.806  0.00  0.00    +0.178 C 
ATOM      5  C   UNL     1       3.817  -3.840  -0.655  0.00  0.00    +0.178 C 
ENDROOT
BRANCH   1   6
ATOM      6  N   UNL     1       1.526  -1.094   0.063  0.00  0.00    -0.285 N 
ATOM      7  C   UNL     1       0.357  -0.635  -0.477  0.00  0.00    +0.171 A 
ATOM      8  C   UNL     1       2.163  -0.025   0.628  0.00  0.00    +0.203 A 
ATOM      9  C   UNL     1       0.354   0.718  -0.216  0.00  0.00    +0.172 A 
ATOM     10  N   UNL     1      -0.575  -1.358  -1.146  0.00  0.00    -0.196 NA
ATOM     11  N   UNL     1       1.481   1.094   0.471  0.00  0.00    -0.229 NA
ATOM     12  C   UNL     1      -0.763   1.497  -0.693  0.00  0.00    +0.280 A 
ATOM     13  C   UNL     1      -1.571  -0.634  -1.589  0.00  0.00    +0.195 A 
ATOM     14  N   UNL     1      -1.690   0.720  -1.374  0.00  0.00    -0.293 N 
ATOM     15  O   UNL     1      -0.916   2.706  -0.542  0.00  0.00    -0.265 OA
ATOM     16  N   UNL     1      -2.566  -1.216  -2.304  0.00  0.00    -0.329 N 
ATOM     17  H   UNL     1      -2.464   1.231  -1.766  0.00  0.00    +0.172 HD
ATOM     18  H   UNL     1      -2.555  -2.234  -2.256  0.00  0.00    +0.145 HD
ATOM     19  H   UNL     1      -3.493  -0.820  -2.238  0.00  0.00    +0.145 HD
ENDBRANCH   1   6
BRANCH   3  20
ATOM     20  O   UNL     1       2.218  -3.198  -2.356  0.00  0.00    -0.385 OA
ATOM     21  H   UNL     1       2.138  -4.171  -2.286  0.00  0.00    +0.210 HD
ENDBRANCH   3  20
BRANCH   5  22
ATOM     22  O   UNL     1       3.133  -5.103  -0.761  0.00  0.00    -0.386 OA
ATOM     23  H   UNL     1       2.485  -5.194  -0.037  0.00  0.00    +0.210 HD
ENDBRANCH   5  22
BRANCH   4  24
ATOM     24  C   UNL     1       5.221  -2.562   1.075  0.00  0.00    +0.206 C 
BRANCH  24  25
ATOM     25  O   UNL     1       5.342  -2.211   2.459  0.00  0.00    -0.284 OA
BRANCH  25  26
ATOM     26  P   UNL     1       5.432  -3.579   3.514  0.00  0.00    +0.483 P 
ATOM     27  O   UNL     1       5.513  -4.804   4.458  0.00  0.00    -0.227 OA
BRANCH  26  28
ATOM     28  O   UNL     1       3.968  -3.080   4.070  0.00  0.00    -0.302 OA
ATOM     29  H   UNL     1       3.218  -3.284   3.485  0.00  0.00    +0.222 HD
ENDBRANCH  26  28
BRANCH  26  30
ATOM     30  O   UNL     1       6.369  -2.653   4.635  0.00  0.00    -0.186 OA
BRANCH  30  31
ATOM     31  P   UNL     1       8.050  -2.828   4.264  0.00  0.00    +0.481 P 
ATOM     32  O   UNL     1       9.554  -2.984   3.932  0.00  0.00    -0.227 OA
BRANCH  31  33
ATOM     33  O   UNL     1       7.802  -1.584   3.233  0.00  0.00    -0.302 OA
ATOM     34  H   UNL     1       7.528  -0.816   3.771  0.00  0.00    +0.222 HD
ENDBRANCH  31  33
BRANCH  31  35
ATOM     35  O   UNL     1       8.295  -1.869   5.572  0.00  0.00    -0.302 OA
ATOM     36  H   UNL     1       8.110  -2.356   6.396  0.00  0.00    +0.222 HD
ENDBRANCH  31  35
ENDBRANCH  30  31
ENDBRANCH  26  30
ENDBRANCH  25  26
ENDBRANCH  24  25
ENDBRANCH   4  24
TORSDOF 11
