REMARK  Name = 
REMARK  11 active torsions:
REMARK  status: ('A' for Active; 'I' for Inactive)
REMARK    1  A    between atoms: C_9  and  C_13
REMARK    2  A    between atoms: C_13  and  N_14
REMARK    3  A    between atoms: N_14  and  C_15
REMARK    4  A    between atoms: C_18  and  C_21
REMARK    5  A    between atoms: N_22  and  CA_24
REMARK    6  A    between atoms: CA_24  and  CB_25
REMARK    7  A    between atoms: CA_24  and  C_30
REMARK    8  A    between atoms: CB_25  and  CG_26
REMARK    9  A    between atoms: CG_26  and  CD_27
REMARK   10  A    between atoms: CD_27  and  OE1_28
REMARK   11  A    between atoms: C_30  and  OXT_32
REMARK                            x       y       z     vdW  Elec       q    Type
REMARK                         _______ _______ _______ _____ _____    ______ ____
ROOT
ATOM      1  N   UNK A   0       4.988   1.213  -1.401  0.00  0.00    -0.272 N 
ATOM      2  C   UNK A   0       4.344   0.557  -0.359  0.00  0.00    +0.332 C 
ATOM      3  O   UNK A   0       4.738   0.513   0.801  0.00  0.00    -0.279 OA
ENDROOT
BRANCH   1   4
ATOM      4  C   UNK A   0       4.454   1.169  -2.721  0.00  0.00    +0.036 A 
ATOM      5  C   UNK A   0       3.084   1.373  -2.944  0.00  0.00    +0.024 A 
ATOM      6  C   UNK A   0       2.515   1.127  -4.203  0.00  0.00    +0.015 A 
ATOM      7  C   UNK A   0       3.302   0.660  -5.263  0.00  0.00    +0.037 A 
ATOM      8  C   UNK A   0       4.684   0.527  -5.064  0.00  0.00    +0.015 A 
ATOM      9  C   UNK A   0       5.256   0.797  -3.806  0.00  0.00    +0.024 A 
BRANCH   7  10
ATOM     10  C   UNK A   0       2.620   0.140  -6.493  0.00  0.00    +0.245 C 
ATOM     11  N   GLU A   1       3.274   0.272  -7.696  0.00  0.00    -0.298 N 
ATOM     12  O   UNK A   0       1.533  -0.417  -6.395  0.00  0.00    -0.270 OA
ATOM     13  H   GLU A   1       4.110   0.848  -7.747  0.00  0.00    +0.150 HD
BRANCH  11  14
ATOM     14  CA  GLU A   1       2.874  -0.454  -8.915  0.00  0.00    +0.182 C 
BRANCH  14  15
ATOM     15  C   GLU A   1       4.011  -0.251  -9.925  0.00  0.00    +0.325 C 
ATOM     16  O   GLU A   1       4.470   0.849 -10.206  0.00  0.00    -0.249 OA
BRANCH  15  17
ATOM     17  OXT GLU A   1       4.473  -1.387 -10.491  0.00  0.00    -0.479 OA
ATOM     18  HXT GLU A   1       4.070  -2.217 -10.171  0.00  0.00    +0.295 HD
ENDBRANCH  15  17
ENDBRANCH  14  15
BRANCH  14  19
ATOM     19  CB  GLU A   1       1.542   0.019  -9.541  0.00  0.00    +0.045 C 
BRANCH  19  20
ATOM     20  CG  GLU A   1       1.260  -0.662 -10.891  0.00  0.00    +0.123 C 
BRANCH  20  21
ATOM     21  CD  GLU A   1      -0.084  -0.408 -11.539  0.00  0.00    +0.305 C 
ATOM     22  OE2 GLU A   1      -0.620  -1.232 -12.267  0.00  0.00    -0.251 OA
BRANCH  21  23
ATOM     23  OE1 GLU A   1      -0.609   0.817 -11.357  0.00  0.00    -0.481 OA
ATOM     24  HE1 GLU A   1      -0.078   1.437 -10.827  0.00  0.00    +0.295 HD
ENDBRANCH  21  23
ENDBRANCH  20  21
ENDBRANCH  19  20
ENDBRANCH  14  19
ENDBRANCH  11  14
ENDBRANCH   7  10
ENDBRANCH   1   4
BRANCH   1  25
ATOM     25  C   UNK A   0       6.244   1.928  -1.102  0.00  0.00    +0.137 C 
BRANCH  25  34
ATOM     26  N   UNK A   0       3.666   7.467  -0.971  0.00  0.00    -0.294 N 
ATOM     27  C   UNK A   0       4.527   7.997  -0.065  0.00  0.00    +0.195 A 
ATOM     28  N   UNK A   0       5.600   7.397   0.344  0.00  0.00    -0.199 NA
ATOM     29  C   UNK A   0       5.874   6.146  -0.152  0.00  0.00    +0.149 A 
ATOM     30  C   UNK A   0       5.056   5.509  -1.033  0.00  0.00    +0.133 A 
ATOM     31  C   UNK A   0       3.825   6.213  -1.466  0.00  0.00    +0.276 A 
ATOM     32  N   UNK A   0       6.994   5.457   0.309  0.00  0.00    -0.326 N 
ATOM     33  C   UNK A   0       7.283   4.066  -0.060  0.00  0.00    +0.126 C 
ATOM     34  C   UNK A   0       5.979   3.319  -0.485  0.00  0.00    +0.105 C 
ATOM     35  N   UNK A   0       5.242   4.178  -1.439  0.00  0.00    -0.331 N 
ATOM     36  O   UNK A   0       2.985   5.674  -2.185  0.00  0.00    -0.266 OA
ATOM     37  N   UNK A   0       4.205   9.226   0.413  0.00  0.00    -0.329 N 
ATOM     38  H   UNK A   0       2.809   7.939  -1.206  0.00  0.00    +0.172 HD
ATOM     39  H   UNK A   0       7.378   5.843   1.164  0.00  0.00    +0.148 HD
ATOM     40  H   UNK A   0       4.366   3.785  -1.785  0.00  0.00    +0.147 HD
ATOM     41  H   UNK A   0       3.735   9.858  -0.222  0.00  0.00    +0.145 HD
ATOM     42  H   UNK A   0       4.987   9.652   0.899  0.00  0.00    +0.145 HD
ENDBRANCH  25  34
ENDBRANCH   1  25
TORSDOF 11
