REMARK  Name = 
REMARK  12 active torsions:
REMARK  status: ('A' for Active; 'I' for Inactive)
REMARK    1  A    between atoms: C_1  and  O_3
REMARK    2  A    between atoms: C_2  and  C_6
REMARK    3  A    between atoms: O_3  and  C_7
REMARK    4  A    between atoms: C_4  and  O_9
REMARK    5  A    between atoms: C_6  and  O_11
REMARK    6  A    between atoms: C_8  and  O_14
REMARK    7  A    between atoms: C_10  and  O_15
REMARK    8  A    between atoms: C_13  and  O_18
REMARK    9  A    between atoms: C_16  and  C_20
REMARK   10  A    between atoms: C_17  and  O_21
REMARK   11  A    between atoms: C_19  and  O_22
REMARK   12  A    between atoms: C_20  and  O_23
REMARK                            x       y       z     vdW  Elec       q    Type
REMARK                         _______ _______ _______ _____ _____    ______ ____
ROOT
ATOM      1  O   UNL     1       0.618   1.172  -1.575  0.00  0.00    -0.340 OA
ENDROOT
BRANCH   1   2
ATOM      2  C   UNL     1       0.146   1.533  -0.243  0.00  0.00    +0.183 C 
ATOM      3  C   UNL     1      -1.390   1.275  -0.266  0.00  0.00    +0.178 C 
ATOM      4  C   UNL     1       0.429   3.007   0.144  0.00  0.00    +0.179 C 
ATOM      5  O   UNL     1      -2.096   2.267  -1.048  0.00  0.00    -0.341 OA
ATOM      6  C   UNL     1      -0.373   3.981  -0.737  0.00  0.00    +0.201 C 
ATOM      7  C   UNL     1      -1.867   3.625  -0.693  0.00  0.00    +0.279 C 
BRANCH   4   8
ATOM      8  O   UNL     1       0.178   3.231   1.537  0.00  0.00    -0.386 OA
ATOM      9  H   UNL     1      -0.700   3.656   1.632  0.00  0.00    +0.210 HD
ENDBRANCH   4   8
BRANCH   6  10
ATOM     10  O   UNL     1       0.095   3.959  -2.089  0.00  0.00    -0.384 OA
ATOM     11  H   UNL     1      -0.141   3.081  -2.456  0.00  0.00    +0.210 HD
ENDBRANCH   6  10
BRANCH   7  12
ATOM     12  O   UNL     1      -2.412   3.904   0.588  0.00  0.00    -0.365 OA
ATOM     13  H   UNL     1      -3.369   4.003   0.434  0.00  0.00    +0.213 HD
ENDBRANCH   7  12
BRANCH   3  14
ATOM     14  C   UNL     1      -2.069   1.063   1.101  0.00  0.00    +0.190 C 
BRANCH  14  15
ATOM     15  O   UNL     1      -1.670  -0.165   1.695  0.00  0.00    -0.392 OA
ATOM     16  H   UNL     1      -2.239  -0.304   2.471  0.00  0.00    +0.210 HD
ENDBRANCH  14  15
ENDBRANCH   3  14
ENDBRANCH   1   2
BRANCH   1  17
ATOM     17  C   UNL     1       1.971   1.449  -1.912  0.00  0.00    +0.282 C 
ATOM     18  O   UNL     1       2.189   1.178  -3.303  0.00  0.00    -0.341 OA
ATOM     19  C   UNL     1       3.092   0.842  -1.057  0.00  0.00    +0.201 C 
ATOM     20  C   UNL     1       2.617  -0.128  -3.711  0.00  0.00    +0.178 C 
ATOM     21  C   UNL     1       3.151  -0.671  -1.197  0.00  0.00    +0.179 C 
ATOM     22  C   UNL     1       3.164  -1.121  -2.660  0.00  0.00    +0.177 C 
BRANCH  19  23
ATOM     23  O   UNL     1       4.369   1.380  -1.468  0.00  0.00    -0.384 OA
ATOM     24  H   UNL     1       4.255   1.776  -2.354  0.00  0.00    +0.210 HD
ENDBRANCH  19  23
BRANCH  21  25
ATOM     25  O   UNL     1       2.059  -1.279  -0.506  0.00  0.00    -0.386 OA
ATOM     26  H   UNL     1       2.245  -2.235  -0.461  0.00  0.00    +0.210 HD
ENDBRANCH  21  25
BRANCH  22  27
ATOM     27  O   UNL     1       4.518  -1.462  -3.027  0.00  0.00    -0.386 OA
ATOM     28  H   UNL     1       5.069  -0.664  -2.923  0.00  0.00    +0.210 HD
ENDBRANCH  22  27
BRANCH  20  29
ATOM     29  C   UNL     1       1.526  -0.798  -4.561  0.00  0.00    +0.190 C 
BRANCH  29  30
ATOM     30  O   UNL     1       1.240  -0.013  -5.720  0.00  0.00    -0.392 OA
ATOM     31  H   UNL     1       1.085   0.892  -5.393  0.00  0.00    +0.210 HD
ENDBRANCH  29  30
ENDBRANCH  20  29
ENDBRANCH   1  17
TORSDOF 12
