MODEL 1
REMARK VINA RESULT:    -9.165      0.000      0.000
REMARK INTER + INTRA:         -14.646
REMARK INTER:                 -13.451
REMARK INTRA:                  -1.195
REMARK UNBOUND:                -1.195
REMARK  Name = 5318574
REMARK  12 active torsions:
REMARK  status: ('A' for Active; 'I' for Inactive)
REMARK    1  A    between atoms: O_2  and  C_17
REMARK    2  A    between atoms: O_2  and  C_19
REMARK    3  A    between atoms: O_3  and  C_13
REMARK    4  A    between atoms: O_4  and  C_14
REMARK    5  A    between atoms: O_5  and  C_15
REMARK    6  A    between atoms: O_6  and  C_18
REMARK    7  A    between atoms: O_9  and  C_25
REMARK    8  A    between atoms: O_10  and  C_30
REMARK    9  A    between atoms: O_11  and  C_31
REMARK   10  A    between atoms: O_12  and  C_33
REMARK   11  A    between atoms: C_16  and  C_18
REMARK   12  A    between atoms: C_20  and  C_24
REMARK                            x       y       z     vdW  Elec       q    Type
REMARK                         _______ _______ _______ _____ _____    ______ ____
ROOT
ATOM      1  O   UNL     1      17.893  -1.668  34.345  0.00  0.00    +0.000 OA
ATOM      2  O   UNL     1      17.300  -0.977  30.365  0.00  0.00    +0.000 OA
ATOM      3  C   UNL     1      18.251  -0.239  32.415  0.00  0.00    +0.000 A 
ATOM      4  C   UNL     1      18.403  -0.452  33.787  0.00  0.00    +0.000 A 
ATOM      5  C   UNL     1      17.446  -1.199  31.570  0.00  0.00    +0.000 A 
ATOM      6  C   UNL     1      16.891  -2.385  32.218  0.00  0.00    +0.000 A 
ATOM      7  C   UNL     1      17.169  -2.575  33.575  0.00  0.00    +0.000 A 
ATOM      8  C   UNL     1      16.112  -3.320  31.491  0.00  0.00    +0.000 A 
ATOM      9  C   UNL     1      16.662  -3.717  34.189  0.00  0.00    +0.000 A 
ATOM     10  C   UNL     1      15.603  -4.454  32.126  0.00  0.00    +0.000 A 
ATOM     11  C   UNL     1      15.891  -4.642  33.468  0.00  0.00    +0.000 A 
ENDROOT
BRANCH   4  12
ATOM     12  C   UNL     1      19.137   0.419  34.918  0.00  0.00    +0.000 A 
ATOM     13  C   UNL     1      20.498   0.777  34.827  0.00  0.00    +0.000 A 
ATOM     14  C   UNL     1      18.545   0.926  36.112  0.00  0.00    +0.000 A 
ATOM     15  C   UNL     1      21.094   1.693  35.749  0.00  0.00    +0.000 A 
ATOM     16  C   UNL     1      19.064   1.956  36.922  0.00  0.00    +0.000 A 
ATOM     17  C   UNL     1      20.361   2.330  36.741  0.00  0.00    +0.000 A 
BRANCH  15  18
ATOM     18  O   UNL     1      22.428   1.997  35.724  0.00  0.00    +0.000 OA
ATOM     19  H   UNL     1      22.880   1.357  35.155  0.00  0.00    +0.000 HD
ENDBRANCH  15  18
BRANCH  17  20
ATOM     20  O   UNL     1      20.898   3.250  37.590  0.00  0.00    +0.000 OA
ATOM     21  H   UNL     1      21.041   4.054  37.057  0.00  0.00    +0.000 HD
ENDBRANCH  17  20
ENDBRANCH   4  12
BRANCH   8  22
ATOM     22  O   UNL     1      15.811  -3.158  30.172  0.00  0.00    +0.000 OA
ATOM     23  H   UNL     1      14.848  -3.116  30.028  0.00  0.00    +0.000 HD
ENDBRANCH   8  22
BRANCH  11  24
ATOM     24  O   UNL     1      15.417  -5.752  34.115  0.00  0.00    +0.000 OA
ATOM     25  H   UNL     1      16.028  -6.496  33.970  0.00  0.00    +0.000 HD
ENDBRANCH  11  24
BRANCH   3  26
ATOM     26  O   UNL     1      18.641   0.847  31.605  0.00  0.00    +0.000 OA
BRANCH  26  32
ATOM     27  O   UNL     1      20.713   1.752  32.161  0.00  0.00    +0.000 OA
ATOM     28  C   UNL     1      21.272   1.864  29.348  0.00  0.00    +0.000 C 
ATOM     29  C   UNL     1      21.920   2.801  30.393  0.00  0.00    +0.000 C 
ATOM     30  C   UNL     1      20.592   0.632  29.940  0.00  0.00    +0.000 C 
ATOM     31  C   UNL     1      20.983   3.023  31.580  0.00  0.00    +0.000 C 
ATOM     32  C   UNL     1      20.014   0.819  31.340  0.00  0.00    +0.000 C 
BRANCH  28  33
ATOM     33  O   UNL     1      22.283   1.433  28.414  0.00  0.00    +0.000 OA
ATOM     34  H   UNL     1      22.203   0.469  28.287  0.00  0.00    +0.000 HD
ENDBRANCH  28  33
BRANCH  29  35
ATOM     35  O   UNL     1      22.264   4.043  29.776  0.00  0.00    +0.000 OA
ATOM     36  H   UNL     1      21.489   4.631  29.810  0.00  0.00    +0.000 HD
ENDBRANCH  29  35
BRANCH  30  37
ATOM     37  O   UNL     1      19.674   0.004  29.042  0.00  0.00    +0.000 OA
ATOM     38  H   UNL     1      18.945   0.623  28.867  0.00  0.00    +0.000 HD
ENDBRANCH  30  37
BRANCH  31  39
ATOM     39  C   UNL     1      21.609   3.891  32.692  0.00  0.00    +0.000 C 
BRANCH  39  40
ATOM     40  O   UNL     1      22.960   4.244  32.380  0.00  0.00    +0.000 OA
ATOM     41  H   UNL     1      23.120   5.098  32.822  0.00  0.00    +0.000 HD
ENDBRANCH  39  40
ENDBRANCH  31  39
ENDBRANCH  26  32
ENDBRANCH   3  26
TORSDOF 12
ENDMDL
MODEL 2
REMARK VINA RESULT:    -8.936      1.374      1.785
REMARK INTER + INTRA:         -14.310
REMARK INTER:                 -12.887
REMARK INTRA:                  -1.423
REMARK UNBOUND:                -1.195
REMARK  Name = 5318574
REMARK  12 active torsions:
REMARK  status: ('A' for Active; 'I' for Inactive)
REMARK    1  A    between atoms: O_2  and  C_17
REMARK    2  A    between atoms: O_2  and  C_19
REMARK    3  A    between atoms: O_3  and  C_13
REMARK    4  A    between atoms: O_4  and  C_14
REMARK    5  A    between atoms: O_5  and  C_15
REMARK    6  A    between atoms: O_6  and  C_18
REMARK    7  A    between atoms: O_9  and  C_25
REMARK    8  A    between atoms: O_10  and  C_30
REMARK    9  A    between atoms: O_11  and  C_31
REMARK   10  A    between atoms: O_12  and  C_33
REMARK   11  A    between atoms: C_16  and  C_18
REMARK   12  A    between atoms: C_20  and  C_24
REMARK                            x       y       z     vdW  Elec       q    Type
REMARK                         _______ _______ _______ _____ _____    ______ ____
ROOT
ATOM      1  O   UNL     1      17.938  -1.855  35.524  0.00  0.00    +0.000 OA
ATOM      2  O   UNL     1      16.502  -2.065  31.708  0.00  0.00    +0.000 OA
ATOM      3  C   UNL     1      17.785  -0.867  33.311  0.00  0.00    +0.000 A 
ATOM      4  C   UNL     1      18.226  -0.772  34.633  0.00  0.00    +0.000 A 
ATOM      5  C   UNL     1      16.905  -2.015  32.873  0.00  0.00    +0.000 A 
ATOM      6  C   UNL     1      16.588  -3.051  33.854  0.00  0.00    +0.000 A 
ATOM      7  C   UNL     1      17.148  -2.932  35.129  0.00  0.00    +0.000 A 
ATOM      8  C   UNL     1      15.755  -4.147  33.517  0.00  0.00    +0.000 A 
ATOM      9  C   UNL     1      16.868  -3.931  36.058  0.00  0.00    +0.000 A 
ATOM     10  C   UNL     1      15.476  -5.133  34.465  0.00  0.00    +0.000 A 
ATOM     11  C   UNL     1      16.043  -5.016  35.724  0.00  0.00    +0.000 A 
ENDROOT
BRANCH   4  12
ATOM     12  C   UNL     1      19.102   0.348  35.378  0.00  0.00    +0.000 A 
ATOM     13  C   UNL     1      20.469   0.549  35.092  0.00  0.00    +0.000 A 
ATOM     14  C   UNL     1      18.643   1.252  36.381  0.00  0.00    +0.000 A 
ATOM     15  C   UNL     1      21.192   1.657  35.634  0.00  0.00    +0.000 A 
ATOM     16  C   UNL     1      19.286   2.438  36.786  0.00  0.00    +0.000 A 
ATOM     17  C   UNL     1      20.582   2.631  36.414  0.00  0.00    +0.000 A 
BRANCH  15  18
ATOM     18  O   UNL     1      22.534   1.829  35.429  0.00  0.00    +0.000 OA
ATOM     19  H   UNL     1      22.665   2.627  34.897  0.00  0.00    +0.000 HD
ENDBRANCH  15  18
BRANCH  17  20
ATOM     20  O   UNL     1      21.241   3.725  36.888  0.00  0.00    +0.000 OA
ATOM     21  H   UNL     1      20.869   3.898  37.774  0.00  0.00    +0.000 HD
ENDBRANCH  17  20
ENDBRANCH   4  12
BRANCH   8  22
ATOM     22  O   UNL     1      15.183  -4.285  32.289  0.00  0.00    +0.000 OA
ATOM     23  H   UNL     1      15.474  -5.105  31.850  0.00  0.00    +0.000 HD
ENDBRANCH   8  22
BRANCH  11  24
ATOM     24  O   UNL     1      15.799  -5.974  36.671  0.00  0.00    +0.000 OA
ATOM     25  H   UNL     1      16.141  -5.674  37.531  0.00  0.00    +0.000 HD
ENDBRANCH  11  24
BRANCH   3  26
ATOM     26  O   UNL     1      17.917   0.030  32.232  0.00  0.00    +0.000 OA
BRANCH  26  32
ATOM     27  O   UNL     1      20.203   0.260  31.857  0.00  0.00    +0.000 OA
ATOM     28  C   UNL     1      19.577   0.627  29.080  0.00  0.00    +0.000 C 
ATOM     29  C   UNL     1      20.844   1.196  29.761  0.00  0.00    +0.000 C 
ATOM     30  C   UNL     1      18.858  -0.452  29.885  0.00  0.00    +0.000 C 
ATOM     31  C   UNL     1      20.584   1.484  31.239  0.00  0.00    +0.000 C 
ATOM     32  C   UNL     1      18.984  -0.323  31.402  0.00  0.00    +0.000 C 
BRANCH  28  33
ATOM     33  O   UNL     1      19.940   0.084  27.794  0.00  0.00    +0.000 OA
ATOM     34  H   UNL     1      19.959  -0.889  27.859  0.00  0.00    +0.000 HD
ENDBRANCH  28  33
BRANCH  29  35
ATOM     35  O   UNL     1      21.266   2.378  29.077  0.00  0.00    +0.000 OA
ATOM     36  H   UNL     1      21.448   3.070  29.737  0.00  0.00    +0.000 HD
ENDBRANCH  29  35
BRANCH  30  37
ATOM     37  O   UNL     1      17.512  -0.675  29.460  0.00  0.00    +0.000 OA
ATOM     38  H   UNL     1      16.961   0.055  29.791  0.00  0.00    +0.000 HD
ENDBRANCH  30  37
BRANCH  31  39
ATOM     39  C   UNL     1      21.839   1.983  31.988  0.00  0.00    +0.000 C 
BRANCH  39  40
ATOM     40  O   UNL     1      22.655   0.892  32.423  0.00  0.00    +0.000 OA
ATOM     41  H   UNL     1      22.049   0.260  32.851  0.00  0.00    +0.000 HD
ENDBRANCH  39  40
ENDBRANCH  31  39
ENDBRANCH  26  32
ENDBRANCH   3  26
TORSDOF 12
ENDMDL
MODEL 3
REMARK VINA RESULT:    -8.525      2.137      8.512
REMARK INTER + INTRA:         -13.708
REMARK INTER:                 -11.992
REMARK INTRA:                  -1.716
REMARK UNBOUND:                -1.195
REMARK  Name = 5318574
REMARK  12 active torsions:
REMARK  status: ('A' for Active; 'I' for Inactive)
REMARK    1  A    between atoms: O_2  and  C_17
REMARK    2  A    between atoms: O_2  and  C_19
REMARK    3  A    between atoms: O_3  and  C_13
REMARK    4  A    between atoms: O_4  and  C_14
REMARK    5  A    between atoms: O_5  and  C_15
REMARK    6  A    between atoms: O_6  and  C_18
REMARK    7  A    between atoms: O_9  and  C_25
REMARK    8  A    between atoms: O_10  and  C_30
REMARK    9  A    between atoms: O_11  and  C_31
REMARK   10  A    between atoms: O_12  and  C_33
REMARK   11  A    between atoms: C_16  and  C_18
REMARK   12  A    between atoms: C_20  and  C_24
REMARK                            x       y       z     vdW  Elec       q    Type
REMARK                         _______ _______ _______ _____ _____    ______ ____
ROOT
ATOM      1  O   UNL     1      20.081   0.678  32.513  0.00  0.00    +0.000 OA
ATOM      2  O   UNL     1      19.349   1.161  36.500  0.00  0.00    +0.000 OA
ATOM      3  C   UNL     1      18.869  -0.024  34.496  0.00  0.00    +0.000 A 
ATOM      4  C   UNL     1      19.081  -0.147  33.122  0.00  0.00    +0.000 A 
ATOM      5  C   UNL     1      19.573   1.051  35.292  0.00  0.00    +0.000 A 
ATOM      6  C   UNL     1      20.528   1.908  34.594  0.00  0.00    +0.000 A 
ATOM      7  C   UNL     1      20.756   1.657  33.237  0.00  0.00    +0.000 A 
ATOM      8  C   UNL     1      21.212   2.947  35.273  0.00  0.00    +0.000 A 
ATOM      9  C   UNL     1      21.684   2.457  32.576  0.00  0.00    +0.000 A 
ATOM     10  C   UNL     1      22.132   3.745  34.591  0.00  0.00    +0.000 A 
ATOM     11  C   UNL     1      22.362   3.485  33.249  0.00  0.00    +0.000 A 
ENDROOT
BRANCH   4  12
ATOM     12  C   UNL     1      18.435  -1.136  32.035  0.00  0.00    +0.000 A 
ATOM     13  C   UNL     1      19.222  -1.925  31.172  0.00  0.00    +0.000 A 
ATOM     14  C   UNL     1      17.043  -1.345  31.805  0.00  0.00    +0.000 A 
ATOM     15  C   UNL     1      18.641  -2.925  30.332  0.00  0.00    +0.000 A 
ATOM     16  C   UNL     1      16.470  -2.433  31.117  0.00  0.00    +0.000 A 
ATOM     17  C   UNL     1      17.284  -3.222  30.362  0.00  0.00    +0.000 A 
BRANCH  15  18
ATOM     18  O   UNL     1      19.376  -3.650  29.434  0.00  0.00    +0.000 OA
ATOM     19  H   UNL     1      19.146  -3.359  28.540  0.00  0.00    +0.000 HD
ENDBRANCH  15  18
BRANCH  17  20
ATOM     20  O   UNL     1      16.721  -4.211  29.614  0.00  0.00    +0.000 OA
ATOM     21  H   UNL     1      16.017  -4.598  30.167  0.00  0.00    +0.000 HD
ENDBRANCH  17  20
ENDBRANCH   4  12
BRANCH   8  22
ATOM     22  O   UNL     1      21.003   3.226  36.591  0.00  0.00    +0.000 OA
ATOM     23  H   UNL     1      20.313   2.653  36.971  0.00  0.00    +0.000 HD
ENDBRANCH   8  22
BRANCH  11  24
ATOM     24  O   UNL     1      23.268   4.243  32.556  0.00  0.00    +0.000 OA
ATOM     25  H   UNL     1      24.168   4.019  32.851  0.00  0.00    +0.000 HD
ENDBRANCH  11  24
BRANCH   3  26
ATOM     26  O   UNL     1      17.965  -0.689  35.349  0.00  0.00    +0.000 OA
BRANCH  26  32
ATOM     27  O   UNL     1      17.686  -2.935  34.798  0.00  0.00    +0.000 OA
ATOM     28  C   UNL     1      17.745  -3.496  37.612  0.00  0.00    +0.000 C 
ATOM     29  C   UNL     1      17.028  -4.386  36.571  0.00  0.00    +0.000 C 
ATOM     30  C   UNL     1      18.731  -2.495  37.017  0.00  0.00    +0.000 C 
ATOM     31  C   UNL     1      16.546  -3.553  35.384  0.00  0.00    +0.000 C 
ATOM     32  C   UNL     1      18.383  -1.997  35.616  0.00  0.00    +0.000 C 
BRANCH  28  33
ATOM     33  O   UNL     1      18.449  -4.341  38.547  0.00  0.00    +0.000 OA
ATOM     34  H   UNL     1      18.075  -5.241  38.499  0.00  0.00    +0.000 HD
ENDBRANCH  28  33
BRANCH  29  35
ATOM     35  O   UNL     1      15.937  -5.068  37.193  0.00  0.00    +0.000 OA
ATOM     36  H   UNL     1      16.137  -6.021  37.210  0.00  0.00    +0.000 HD
ENDBRANCH  29  35
BRANCH  30  37
ATOM     37  O   UNL     1      19.074  -1.434  37.911  0.00  0.00    +0.000 OA
ATOM     38  H   UNL     1      18.854  -0.589  37.482  0.00  0.00    +0.000 HD
ENDBRANCH  30  37
BRANCH  31  39
ATOM     39  C   UNL     1      15.889  -4.403  34.275  0.00  0.00    +0.000 C 
BRANCH  39  40
ATOM     40  O   UNL     1      14.507  -4.650  34.557  0.00  0.00    +0.000 OA
ATOM     41  H   UNL     1      14.044  -4.570  33.704  0.00  0.00    +0.000 HD
ENDBRANCH  39  40
ENDBRANCH  31  39
ENDBRANCH  26  32
ENDBRANCH   3  26
TORSDOF 12
ENDMDL
MODEL 4
REMARK VINA RESULT:    -8.525      1.425      6.617
REMARK INTER + INTRA:         -13.707
REMARK INTER:                 -12.430
REMARK INTRA:                  -1.278
REMARK UNBOUND:                -1.195
REMARK  Name = 5318574
REMARK  12 active torsions:
REMARK  status: ('A' for Active; 'I' for Inactive)
REMARK    1  A    between atoms: O_2  and  C_17
REMARK    2  A    between atoms: O_2  and  C_19
REMARK    3  A    between atoms: O_3  and  C_13
REMARK    4  A    between atoms: O_4  and  C_14
REMARK    5  A    between atoms: O_5  and  C_15
REMARK    6  A    between atoms: O_6  and  C_18
REMARK    7  A    between atoms: O_9  and  C_25
REMARK    8  A    between atoms: O_10  and  C_30
REMARK    9  A    between atoms: O_11  and  C_31
REMARK   10  A    between atoms: O_12  and  C_33
REMARK   11  A    between atoms: C_16  and  C_18
REMARK   12  A    between atoms: C_20  and  C_24
REMARK                            x       y       z     vdW  Elec       q    Type
REMARK                         _______ _______ _______ _____ _____    ______ ____
ROOT
ATOM      1  O   UNL     1      20.719   2.073  32.967  0.00  0.00    +0.000 OA
ATOM      2  O   UNL     1      19.686  -0.566  30.029  0.00  0.00    +0.000 OA
ATOM      3  C   UNL     1      19.652  -0.016  32.341  0.00  0.00    +0.000 A 
ATOM      4  C   UNL     1      20.057   0.862  33.348  0.00  0.00    +0.000 A 
ATOM      5  C   UNL     1      20.029   0.237  30.899  0.00  0.00    +0.000 A 
ATOM      6  C   UNL     1      20.770   1.458  30.588  0.00  0.00    +0.000 A 
ATOM      7  C   UNL     1      21.053   2.333  31.641  0.00  0.00    +0.000 A 
ATOM      8  C   UNL     1      21.171   1.752  29.261  0.00  0.00    +0.000 A 
ATOM      9  C   UNL     1      21.737   3.509  31.343  0.00  0.00    +0.000 A 
ATOM     10  C   UNL     1      21.865   2.930  28.983  0.00  0.00    +0.000 A 
ATOM     11  C   UNL     1      22.134   3.799  30.028  0.00  0.00    +0.000 A 
ENDROOT
BRANCH   4  12
ATOM     12  C   UNL     1      19.857   0.810  34.940  0.00  0.00    +0.000 A 
ATOM     13  C   UNL     1      19.982   1.956  35.753  0.00  0.00    +0.000 A 
ATOM     14  C   UNL     1      19.539  -0.344  35.716  0.00  0.00    +0.000 A 
ATOM     15  C   UNL     1      19.634   1.932  37.139  0.00  0.00    +0.000 A 
ATOM     16  C   UNL     1      19.031  -0.346  37.030  0.00  0.00    +0.000 A 
ATOM     17  C   UNL     1      19.094   0.808  37.750  0.00  0.00    +0.000 A 
BRANCH  15  18
ATOM     18  O   UNL     1      19.817   3.011  37.961  0.00  0.00    +0.000 OA
ATOM     19  H   UNL     1      19.453   2.800  38.833  0.00  0.00    +0.000 HD
ENDBRANCH  15  18
BRANCH  17  20
ATOM     20  O   UNL     1      18.701   0.785  39.054  0.00  0.00    +0.000 OA
ATOM     21  H   UNL     1      18.490   1.709  39.286  0.00  0.00    +0.000 HD
ENDBRANCH  17  20
ENDBRANCH   4  12
BRANCH   8  22
ATOM     22  O   UNL     1      20.922   0.914  28.215  0.00  0.00    +0.000 OA
ATOM     23  H   UNL     1      20.044   1.081  27.826  0.00  0.00    +0.000 HD
ENDBRANCH   8  22
BRANCH  11  24
ATOM     24  O   UNL     1      22.801   4.970  29.784  0.00  0.00    +0.000 OA
ATOM     25  H   UNL     1      23.743   4.778  29.626  0.00  0.00    +0.000 HD
ENDBRANCH  11  24
BRANCH   3  26
ATOM     26  O   UNL     1      18.996  -1.262  32.417  0.00  0.00    +0.000 OA
BRANCH  26  32
ATOM     27  O   UNL     1      17.193  -1.407  33.884  0.00  0.00    +0.000 OA
ATOM     28  C   UNL     1      15.741  -2.689  31.766  0.00  0.00    +0.000 C 
ATOM     29  C   UNL     1      15.444  -2.903  33.268  0.00  0.00    +0.000 C 
ATOM     30  C   UNL     1      16.614  -1.474  31.462  0.00  0.00    +0.000 C 
ATOM     31  C   UNL     1      16.710  -2.727  34.104  0.00  0.00    +0.000 C 
ATOM     32  C   UNL     1      17.613  -1.103  32.556  0.00  0.00    +0.000 C 
BRANCH  28  33
ATOM     33  O   UNL     1      14.493  -2.554  31.055  0.00  0.00    +0.000 OA
ATOM     34  H   UNL     1      13.760  -2.740  31.670  0.00  0.00    +0.000 HD
ENDBRANCH  28  33
BRANCH  29  35
ATOM     35  O   UNL     1      14.879  -4.201  33.465  0.00  0.00    +0.000 OA
ATOM     36  H   UNL     1      14.415  -4.211  34.320  0.00  0.00    +0.000 HD
ENDBRANCH  29  35
BRANCH  30  37
ATOM     37  O   UNL     1      17.206  -1.511  30.162  0.00  0.00    +0.000 OA
ATOM     38  H   UNL     1      17.338  -0.596  29.859  0.00  0.00    +0.000 HD
ENDBRANCH  30  37
BRANCH  31  39
ATOM     39  C   UNL     1      16.457  -2.855  35.622  0.00  0.00    +0.000 C 
BRANCH  39  40
ATOM     40  O   UNL     1      15.677  -1.761  36.115  0.00  0.00    +0.000 OA
ATOM     41  H   UNL     1      15.356  -2.038  36.993  0.00  0.00    +0.000 HD
ENDBRANCH  39  40
ENDBRANCH  31  39
ENDBRANCH  26  32
ENDBRANCH   3  26
TORSDOF 12
ENDMDL
MODEL 5
REMARK VINA RESULT:    -8.455      1.801      5.194
REMARK INTER + INTRA:         -13.604
REMARK INTER:                 -11.931
REMARK INTRA:                  -1.673
REMARK UNBOUND:                -1.195
REMARK  Name = 5318574
REMARK  12 active torsions:
REMARK  status: ('A' for Active; 'I' for Inactive)
REMARK    1  A    between atoms: O_2  and  C_17
REMARK    2  A    between atoms: O_2  and  C_19
REMARK    3  A    between atoms: O_3  and  C_13
REMARK    4  A    between atoms: O_4  and  C_14
REMARK    5  A    between atoms: O_5  and  C_15
REMARK    6  A    between atoms: O_6  and  C_18
REMARK    7  A    between atoms: O_9  and  C_25
REMARK    8  A    between atoms: O_10  and  C_30
REMARK    9  A    between atoms: O_11  and  C_31
REMARK   10  A    between atoms: O_12  and  C_33
REMARK   11  A    between atoms: C_16  and  C_18
REMARK   12  A    between atoms: C_20  and  C_24
REMARK                            x       y       z     vdW  Elec       q    Type
REMARK                         _______ _______ _______ _____ _____    ______ ____
ROOT
ATOM      1  O   UNL     1      17.863  -0.903  32.711  0.00  0.00    +0.000 OA
ATOM      2  O   UNL     1      19.184  -1.201  36.562  0.00  0.00    +0.000 OA
ATOM      3  C   UNL     1      19.391  -0.149  34.440  0.00  0.00    +0.000 A 
ATOM      4  C   UNL     1      18.973  -0.092  33.109  0.00  0.00    +0.000 A 
ATOM      5  C   UNL     1      18.780  -1.147  35.398  0.00  0.00    +0.000 A 
ATOM      6  C   UNL     1      17.699  -1.997  34.906  0.00  0.00    +0.000 A 
ATOM      7  C   UNL     1      17.273  -1.811  33.587  0.00  0.00    +0.000 A 
ATOM      8  C   UNL     1      17.091  -2.966  35.743  0.00  0.00    +0.000 A 
ATOM      9  C   UNL     1      16.226  -2.603  33.124  0.00  0.00    +0.000 A 
ATOM     10  C   UNL     1      16.050  -3.759  35.258  0.00  0.00    +0.000 A 
ATOM     11  C   UNL     1      15.624  -3.562  33.954  0.00  0.00    +0.000 A 
ENDROOT
BRANCH   4  12
ATOM     12  C   UNL     1      19.479   0.808  31.880  0.00  0.00    +0.000 A 
ATOM     13  C   UNL     1      18.656   1.774  31.264  0.00  0.00    +0.000 A 
ATOM     14  C   UNL     1      20.767   0.758  31.270  0.00  0.00    +0.000 A 
ATOM     15  C   UNL     1      19.171   2.683  30.289  0.00  0.00    +0.000 A 
ATOM     16  C   UNL     1      21.332   1.749  30.443  0.00  0.00    +0.000 A 
ATOM     17  C   UNL     1      20.515   2.714  29.939  0.00  0.00    +0.000 A 
BRANCH  15  18
ATOM     18  O   UNL     1      18.375   3.578  29.626  0.00  0.00    +0.000 OA
ATOM     19  H   UNL     1      18.897   4.369  29.430  0.00  0.00    +0.000 HD
ENDBRANCH  15  18
BRANCH  17  20
ATOM     20  O   UNL     1      21.034   3.613  29.057  0.00  0.00    +0.000 OA
ATOM     21  H   UNL     1      21.964   3.352  28.925  0.00  0.00    +0.000 HD
ENDBRANCH  17  20
ENDBRANCH   4  12
BRANCH   8  22
ATOM     22  O   UNL     1      17.491  -3.182  37.028  0.00  0.00    +0.000 OA
ATOM     23  H   UNL     1      17.183  -2.473  37.621  0.00  0.00    +0.000 HD
ENDBRANCH   8  22
BRANCH  11  24
ATOM     24  O   UNL     1      14.596  -4.315  33.454  0.00  0.00    +0.000 OA
ATOM     25  H   UNL     1      14.478  -4.114  32.508  0.00  0.00    +0.000 HD
ENDBRANCH  11  24
BRANCH   3  26
ATOM     26  O   UNL     1      20.438   0.521  35.104  0.00  0.00    +0.000 OA
BRANCH  26  32
ATOM     27  O   UNL     1      20.774   2.672  34.279  0.00  0.00    +0.000 OA
ATOM     28  C   UNL     1      21.159   3.513  36.996  0.00  0.00    +0.000 C 
ATOM     29  C   UNL     1      21.771   4.237  35.775  0.00  0.00    +0.000 C 
ATOM     30  C   UNL     1      20.037   2.537  36.654  0.00  0.00    +0.000 C 
ATOM     31  C   UNL     1      22.023   3.256  34.631  0.00  0.00    +0.000 C 
ATOM     32  C   UNL     1      20.146   1.877  35.282  0.00  0.00    +0.000 C 
BRANCH  28  33
ATOM     33  O   UNL     1      20.653   4.498  37.921  0.00  0.00    +0.000 OA
ATOM     34  H   UNL     1      21.097   4.378  38.781  0.00  0.00    +0.000 HD
ENDBRANCH  28  33
BRANCH  29  35
ATOM     35  O   UNL     1      22.981   4.891  36.162  0.00  0.00    +0.000 OA
ATOM     36  H   UNL     1      23.353   4.427  36.932  0.00  0.00    +0.000 HD
ENDBRANCH  29  35
BRANCH  30  37
ATOM     37  O   UNL     1      19.762   1.600  37.698  0.00  0.00    +0.000 OA
ATOM     38  H   UNL     1      18.991   1.067  37.436  0.00  0.00    +0.000 HD
ENDBRANCH  30  37
BRANCH  31  39
ATOM     39  C   UNL     1      22.564   3.939  33.356  0.00  0.00    +0.000 C 
BRANCH  39  40
ATOM     40  O   UNL     1      23.900   4.415  33.545  0.00  0.00    +0.000 OA
ATOM     41  H   UNL     1      24.033   5.108  32.874  0.00  0.00    +0.000 HD
ENDBRANCH  39  40
ENDBRANCH  31  39
ENDBRANCH  26  32
ENDBRANCH   3  26
TORSDOF 12
ENDMDL
