REMARK  Name = 
REMARK  6 active torsions:
REMARK  status: ('A' for Active; 'I' for Inactive)
REMARK    1  A    between atoms: C_1  and  C_8
REMARK    2  A    between atoms: C_2  and  O_10
REMARK    3  A    between atoms: C_4  and  O_6
REMARK    4  A    between atoms: C_8  and  C_9
REMARK    5  A    between atoms: C_8  and  O_11
REMARK    6  A    between atoms: C_9  and  O_12
REMARK                            x       y       z     vdW  Elec       q    Type
REMARK                         _______ _______ _______ _____ _____    ______ ____
ROOT
ATOM      1  C   UNL     1      28.943 -22.068   0.000  0.00  0.00    +0.292 C 
ATOM      2  C   UNL     1      29.391 -23.389   0.000  0.00  0.00    +0.253 C 
ATOM      3  O   UNL     1      30.078 -21.253   0.000  0.00  0.00    -0.444 OA
ATOM      4  C   UNL     1      30.794 -23.389   0.000  0.00  0.00    +0.308 C 
ATOM      5  C   UNL     1      31.213 -22.085   0.000  0.00  0.00    +0.384 C 
ATOM      6  O   UNL     1      32.197 -21.090   0.000  0.00  0.00    -0.241 OA
ENDROOT
BRANCH   4   7
ATOM      7  O   UNL     1      31.626 -24.518   0.000  0.00  0.00    -0.276 OA
ATOM      8  H   UNL     1      31.251 -25.377   0.000  0.00  0.00    +0.000 HD
ENDBRANCH   4   7
BRANCH   2   9
ATOM      9  O   UNL     1      28.575 -24.527   0.000  0.00  0.00    -0.284 OA
ATOM     10  H   UNL     1      27.643 -24.436   0.000  0.00  0.00    +0.000 HD
ENDBRANCH   2   9
BRANCH   1  11
ATOM     11  C   UNL     1      27.735 -21.370   0.000  0.00  0.00    +0.224 C 
BRANCH  11  12
ATOM     12  O   UNL     1      27.735 -19.959   0.000  0.00  0.00    -0.216 OA
ATOM     13  H   UNL     1      28.575 -19.474   0.000  0.00  0.00    +0.000 HD
ENDBRANCH  11  12
BRANCH  11  14
ATOM     14  C   UNL     1      26.528 -22.068   0.000  0.00  0.00    +0.219 C 
BRANCH  14  15
ATOM     15  O   UNL     1      25.294 -21.355   0.000  0.00  0.00    -0.217 OA
ATOM     16  H   UNL     1      25.294 -20.386   0.000  0.00  0.00    +0.000 HD
ENDBRANCH  14  15
ENDBRANCH  11  14
ENDBRANCH   1  11
TORSDOF 6
