REMARK  Name = 
REMARK  3 active torsions:
REMARK  status: ('A' for Active; 'I' for Inactive)
REMARK    1  A    between atoms: CA_1  and  C_2
REMARK    2  A    between atoms: CA_1  and  N_3
REMARK    3  A    between atoms: C_2  and  O_4
REMARK                            x       y       z     vdW  Elec       q    Type
REMARK                         _______ _______ _______ _____ _____    ______ ____
ROOT
ATOM      1  CA  GLY A   1       1.061  -0.081  -0.071  0.00  0.00    +0.105 C 
ENDROOT
BRANCH   1   2
ATOM      2  N   GLY A   1       2.529  -0.102  -0.037  0.00  0.00    -0.328 NA
ATOM      3  H1  GLY A   1       2.824  -0.819   0.626  0.00  0.00    +0.118 HD
ATOM      4  H2  GLY A   1       2.854   0.777   0.368  0.00  0.00    +0.118 HD
ENDBRANCH   1   2
BRANCH   1   5
ATOM      5  C   GLY A   1       0.501  -1.311  -0.791  0.00  0.00    +0.170 C 
BRANCH   5   6
ATOM      6  O   GLY A   1       0.961  -2.505  -0.167  0.00  0.00    -0.394 OA
ATOM      7  H   GLY A   1       1.919  -2.528  -0.343  0.00  0.00    +0.209 HD
ENDBRANCH   5   6
ENDBRANCH   1   5
TORSDOF 3
