REMARK  Name = 
REMARK  0 active torsions:
REMARK  status: ('A' for Active; 'I' for Inactive)
REMARK                            x       y       z     vdW  Elec       q    Type
REMARK                         _______ _______ _______ _____ _____    ______ ____
ROOT
ATOM      1  C   UNL     1       1.070   0.029  -0.077  0.00  0.00    +0.294 C 
ATOM      2  N   UNL     1       0.337  -0.223   1.024  0.00  0.00    -0.314 N 
ATOM      3  N   UNL     1       0.337   0.282  -1.178  0.00  0.00    -0.314 N 
ATOM      4  O   UNL     1       2.290   0.029  -0.077  0.00  0.00    -0.253 OA
ATOM      5  H   UNL     1      -0.668  -0.225   1.029  0.00  0.00    +0.146 HD
ATOM      6  H   UNL     1       0.838  -0.420   1.880  0.00  0.00    +0.146 HD
ATOM      7  H   UNL     1      -0.668   0.284  -1.183  0.00  0.00    +0.146 HD
ATOM      8  H   UNL     1       0.838   0.479  -2.033  0.00  0.00    +0.146 HD
ENDROOT
TORSDOF 0
