REMARK  Name = 
REMARK  6 active torsions:
REMARK  status: ('A' for Active; 'I' for Inactive)
REMARK    1  A    between atoms: C_1  and  C_4
REMARK    2  A    between atoms: C_2  and  O_6
REMARK    3  A    between atoms: C_4  and  O_8
REMARK    4  A    between atoms: C_5  and  O_10
REMARK    5  A    between atoms: C_7  and  O_11
REMARK    6  A    between atoms: C_9  and  O_12
REMARK                            x       y       z     vdW  Elec       q    Type
REMARK                         _______ _______ _______ _____ _____    ______ ____
ROOT
ATOM      1  C   UNL     1       0.639   1.231  -0.277  0.00  0.00    +0.178 C 
ATOM      2  C   UNL     1       1.375  -0.063   0.116  0.00  0.00    +0.177 C 
ATOM      3  O   UNL     1      -0.693   1.215   0.245  0.00  0.00    -0.341 OA
ATOM      4  C   UNL     1       0.577  -1.340  -0.208  0.00  0.00    +0.179 C 
ATOM      5  C   UNL     1      -1.484   0.108  -0.197  0.00  0.00    +0.279 C 
ATOM      6  C   UNL     1      -0.875  -1.230   0.280  0.00  0.00    +0.201 C 
ENDROOT
BRANCH   2   7
ATOM      7  O   UNL     1       1.591  -0.029   1.546  0.00  0.00    -0.386 OA
ATOM      8  H   UNL     1       0.846   0.436   1.959  0.00  0.00    +0.210 HD
ENDBRANCH   2   7
BRANCH   4   9
ATOM      9  O   UNL     1       0.522  -1.665  -1.607  0.00  0.00    -0.386 OA
ATOM     10  H   UNL     1       1.094  -1.061  -2.116  0.00  0.00    +0.210 HD
ENDBRANCH   4   9
BRANCH   5  11
ATOM     11  O   UNL     1      -2.794   0.295   0.316  0.00  0.00    -0.365 OA
ATOM     12  H   UNL     1      -2.929  -0.367   1.011  0.00  0.00    +0.213 HD
ENDBRANCH   5  11
BRANCH   6  13
ATOM     13  O   UNL     1      -1.644  -2.338  -0.200  0.00  0.00    -0.384 OA
ATOM     14  H   UNL     1      -1.206  -2.616  -1.044  0.00  0.00    +0.210 HD
ENDBRANCH   6  13
BRANCH   1  15
ATOM     15  C   UNL     1       0.681   1.595  -1.764  0.00  0.00    +0.190 C 
BRANCH  15  16
ATOM     16  O   UNL     1       2.022   1.669  -2.234  0.00  0.00    -0.392 OA
ATOM     17  H   UNL     1       2.402   2.513  -1.915  0.00  0.00    +0.210 HD
ENDBRANCH  15  16
ENDBRANCH   1  15
TORSDOF 6
