REMARK  Name = 
REMARK  11 active torsions:
REMARK  status: ('A' for Active; 'I' for Inactive)
REMARK    1  A    between atoms: C_1  and  N_18
REMARK    2  A    between atoms: C_3  and  O_6
REMARK    3  A    between atoms: C_4  and  C_7
REMARK    4  A    between atoms: C_5  and  O_8
REMARK    5  A    between atoms: C_7  and  O_9
REMARK    6  A    between atoms: O_9  and  P_10
REMARK    7  A    between atoms: P_10  and  O_11
REMARK    8  A    between atoms: P_10  and  O_12
REMARK    9  A    between atoms: O_11  and  P_14
REMARK   10  A    between atoms: P_14  and  O_15
REMARK   11  A    between atoms: P_14  and  O_16
REMARK                            x       y       z     vdW  Elec       q    Type
REMARK                         _______ _______ _______ _____ _____    ______ ____
ROOT
ATOM      1  C   UNL     1       0.429   1.311   0.423  0.00  0.00    +0.255 C 
ATOM      2  O   UNL     1       1.592   0.448   0.388  0.00  0.00    -0.346 OA
ATOM      3  C   UNL     1      -0.619   0.668  -0.505  0.00  0.00    +0.195 C 
ATOM      4  C   UNL     1       1.272  -0.776  -0.307  0.00  0.00    +0.178 C 
ATOM      5  C   UNL     1      -0.250  -0.806  -0.409  0.00  0.00    +0.178 C 
ENDROOT
BRANCH   1   6
ATOM      6  N   UNL     1       0.802   2.675   0.063  0.00  0.00    -0.270 N 
ATOM      7  C   UNL     1       0.024   3.716   0.583  0.00  0.00    +0.352 A 
ATOM      8  C   UNL     1       1.899   2.933  -0.741  0.00  0.00    +0.096 A 
ATOM      9  N   UNL     1       0.387   5.013   0.281  0.00  0.00    -0.178 NA
ATOM     10  O   UNL     1      -0.935   3.490   1.310  0.00  0.00    -0.244 OA
ATOM     11  C   UNL     1       2.255   4.176  -1.048  0.00  0.00    +0.061 A 
ATOM     12  C   UNL     1       1.421   5.246  -0.466  0.00  0.00    +0.123 A 
ATOM     13  N   UNL     1       1.749   6.552  -0.704  0.00  0.00    -0.343 N 
ATOM     14  H   UNL     1       1.282   7.182  -0.058  0.00  0.00    +0.144 HD
ATOM     15  H   UNL     1       2.734   6.762  -0.813  0.00  0.00    +0.144 HD
ENDBRANCH   1   6
BRANCH   3  16
ATOM     16  O   UNL     1      -1.975   0.871  -0.126  0.00  0.00    -0.385 OA
ATOM     17  H   UNL     1      -2.167   0.243   0.597  0.00  0.00    +0.210 HD
ENDBRANCH   3  16
BRANCH   5  18
ATOM     18  O   UNL     1      -0.843  -1.357   0.780  0.00  0.00    -0.386 OA
ATOM     19  H   UNL     1      -0.253  -1.191   1.540  0.00  0.00    +0.210 HD
ENDBRANCH   5  18
BRANCH   4  20
ATOM     20  C   UNL     1       1.956  -0.795  -1.681  0.00  0.00    +0.206 C 
BRANCH  20  21
ATOM     21  O   UNL     1       3.377  -0.804  -1.527  0.00  0.00    -0.284 OA
BRANCH  21  22
ATOM     22  P   UNL     1       4.246  -0.877  -3.021  0.00  0.00    +0.483 P 
ATOM     23  O   UNL     1       5.024  -0.943  -4.358  0.00  0.00    -0.227 OA
BRANCH  22  24
ATOM     24  O   UNL     1       4.046  -2.506  -2.920  0.00  0.00    -0.302 OA
ATOM     25  H   UNL     1       3.635  -2.866  -3.724  0.00  0.00    +0.222 HD
ENDBRANCH  22  24
BRANCH  22  26
ATOM     26  O   UNL     1       5.741  -0.771  -2.157  0.00  0.00    -0.186 OA
BRANCH  26  27
ATOM     27  P   UNL     1       6.188   0.891  -1.978  0.00  0.00    +0.481 P 
ATOM     28  O   UNL     1       6.588   2.378  -1.819  0.00  0.00    -0.227 OA
BRANCH  27  29
ATOM     29  O   UNL     1       5.416   0.836  -0.542  0.00  0.00    -0.302 OA
ATOM     30  H   UNL     1       5.814   0.125  -0.004  0.00  0.00    +0.222 HD
ENDBRANCH  27  29
BRANCH  27  31
ATOM     31  O   UNL     1       7.630   0.379  -1.402  0.00  0.00    -0.302 OA
ATOM     32  H   UNL     1       8.210   1.167  -1.370  0.00  0.00    +0.222 HD
ENDBRANCH  27  31
ENDBRANCH  26  27
ENDBRANCH  22  26
ENDBRANCH  21  22
ENDBRANCH  20  21
ENDBRANCH   4  20
TORSDOF 11
