REMARK  Name = 
REMARK  6 active torsions:
REMARK  status: ('A' for Active; 'I' for Inactive)
REMARK    1  A    between atoms: C_3  and  C_8
REMARK    2  A    between atoms: C_8  and  C_10
REMARK    3  A    between atoms: C_10  and  C_12
REMARK    4  A    between atoms: C_12  and  C_13
REMARK    5  A    between atoms: C_13  and  C_14
REMARK    6  A    between atoms: C_14  and  O_15
REMARK                            x       y       z     vdW  Elec       q    Type
REMARK                         _______ _______ _______ _____ _____    ______ ____
ROOT
ATOM      1  C   UNL     1       0.078   0.609   1.089  0.00  0.00    +0.108 C 
ATOM      2  C   UNL     1       0.077  -0.939   1.006  0.00  0.00    +0.105 C 
ATOM      3  C   UNL     1       1.394   1.162   0.511  0.00  0.00    +0.069 C 
ATOM      4  N   UNL     1      -1.111   0.984   0.352  0.00  0.00    -0.294 N 
ATOM      5  N   UNL     1      -1.117  -1.236   0.242  0.00  0.00    -0.294 N 
ATOM      6  C   UNL     1       1.348  -1.446   0.327  0.00  0.00    +0.093 C 
ATOM      7  S   UNL     1       1.927  -0.077  -0.704  0.00  0.00    -0.154 S 
ATOM      8  C   UNL     1      -1.802  -0.104  -0.122  0.00  0.00    +0.300 C 
ATOM      9  O   UNL     1      -2.852  -0.068  -0.733  0.00  0.00    -0.253 OA
ATOM     10  H   UNL     1      -1.493   1.914   0.241  0.00  0.00    +0.151 HD
ATOM     11  H   UNL     1      -1.488  -2.152   0.024  0.00  0.00    +0.151 HD
ENDROOT
BRANCH   3  12
ATOM     12  C   UNL     1       1.315   2.564  -0.099  0.00  0.00    +0.016 C 
BRANCH  12  13
ATOM     13  C   UNL     1       0.975   3.659   0.923  0.00  0.00    +0.002 C 
BRANCH  13  14
ATOM     14  C   UNL     1       1.980   3.804   2.071  0.00  0.00    +0.011 C 
BRANCH  14  15
ATOM     15  C   UNL     1       3.389   4.141   1.583  0.00  0.00    +0.120 C 
BRANCH  15  16
ATOM     16  C   UNL     1       4.377   4.261   2.715  0.00  0.00    +0.305 C 
ATOM     17  O   UNL     1       4.120   4.097   3.896  0.00  0.00    -0.251 OA
BRANCH  16  18
ATOM     18  O   UNL     1       5.622   4.557   2.274  0.00  0.00    -0.481 OA
ATOM     19  H   UNL     1       5.685   4.648   1.303  0.00  0.00    +0.295 HD
ENDBRANCH  16  18
ENDBRANCH  15  16
ENDBRANCH  14  15
ENDBRANCH  13  14
ENDBRANCH  12  13
ENDBRANCH   3  12
TORSDOF 6
