REMARK  Name = 
REMARK  5 active torsions:
REMARK  status: ('A' for Active; 'I' for Inactive)
REMARK    1  A    between atoms: CA_1  and  CB_2
REMARK    2  A    between atoms: CA_1  and  C_6
REMARK    3  A    between atoms: CA_1  and  N_9
REMARK    4  A    between atoms: CB_2  and  CG_3
REMARK    5  A    between atoms: C_6  and  O_7
REMARK                            x       y       z     vdW  Elec       q    Type
REMARK                         _______ _______ _______ _____ _____    ______ ____
ROOT
ATOM      1  CA  ASN A   1       1.068   0.151   0.019  0.00  0.00    +0.169 C 
ENDROOT
BRANCH   1   2
ATOM      2  N   ASN A   1       2.551   0.235   0.023  0.00  0.00    -0.318 NA
ATOM      3  H1  ASN A   1       2.980  -0.299   0.778  0.00  0.00    +0.119 HD
ATOM      4  H2  ASN A   1       2.891   1.193  -0.043  0.00  0.00    +0.119 HD
ENDBRANCH   1   2
BRANCH   1   5
ATOM      5  C   ASN A   1       0.438   0.876   1.221  0.00  0.00    +0.322 C 
ATOM      6  OXT ASN A   1      -0.765   1.001   1.390  0.00  0.00    -0.249 OA
BRANCH   5   7
ATOM      7  O   ASN A   1       1.338   1.372   2.103  0.00  0.00    -0.480 OA
ATOM      8  H   ASN A   1       2.251   1.182   1.827  0.00  0.00    +0.295 HD
ENDBRANCH   5   7
ENDBRANCH   1   5
BRANCH   1   9
ATOM      9  CB  ASN A   1       0.581  -1.300   0.010  0.00  0.00    +0.125 C 
BRANCH   9  10
ATOM     10  CG  ASN A   1       1.083  -2.179  -1.118  0.00  0.00    +0.213 C 
ATOM     11  ND2 ASN A   1       1.935  -1.632  -2.021  0.00  0.00    -0.329 N 
ATOM     12  OD1 ASN A   1       0.747  -3.357  -1.224  0.00  0.00    -0.276 OA
ATOM     13 HD21 ASN A   1       2.514  -0.848  -1.729  0.00  0.00    +0.145 HD
ATOM     14 HD22 ASN A   1       2.345  -2.275  -2.689  0.00  0.00    +0.145 HD
ENDBRANCH   9  10
ENDBRANCH   1   9
TORSDOF 5
