REMARK  Name = 
REMARK  2 active torsions:
REMARK  status: ('A' for Active; 'I' for Inactive)
REMARK    1  A    between atoms: S_1  and  O_2
REMARK    2  A    between atoms: S_1  and  O_3
REMARK                            x       y       z     vdW  Elec       q    Type
REMARK                         _______ _______ _______ _____ _____    ______ ____
ROOT
ATOM      1  S   UNL     1       0.780   0.003   0.033  0.00  0.00    +0.137 S 
ATOM      2  O   UNL     1       2.260   0.138   0.178  0.00  0.00    -0.137 OA
ENDROOT
BRANCH   1   3
ATOM      3  O   UNL     1       0.483  -1.508  -0.381  0.00  0.00    -0.246 OA
ATOM      4  H   UNL     1      -0.423  -1.558  -0.755  0.00  0.00    +0.245 HD
ENDBRANCH   1   3
BRANCH   1   5
ATOM      5  O   UNL     1       0.162  -0.077   1.493  0.00  0.00    -0.246 OA
ATOM      6  H   UNL     1      -0.166   0.811   1.765  0.00  0.00    +0.245 HD
ENDBRANCH   1   5
TORSDOF 2
