REMARK  Name = 
REMARK  16 active torsions:
REMARK  status: ('A' for Active; 'I' for Inactive)
REMARK    1  A    between atoms: C_1  and  C_3
REMARK    2  A    between atoms: C_2  and  C_4
REMARK    3  A    between atoms: C_3  and  C_5
REMARK    4  A    between atoms: C_4  and  C_6
REMARK    5  A    between atoms: C_7  and  C_9
REMARK    6  A    between atoms: C_8  and  C_10
REMARK    7  A    between atoms: C_9  and  C_11
REMARK    8  A    between atoms: C_10  and  C_12
REMARK    9  A    between atoms: C_11  and  C_13
REMARK   10  A    between atoms: C_13  and  C_15
REMARK   11  A    between atoms: C_14  and  C_16
REMARK   12  A    between atoms: C_15  and  O_17
REMARK   13  A    between atoms: C_16  and  C_19
REMARK   14  A    between atoms: C_19  and  C_20
REMARK   15  A    between atoms: C_20  and  C_21
REMARK   16  A    between atoms: C_21  and  C_22
REMARK                            x       y       z     vdW  Elec       q    Type
REMARK                         _______ _______ _______ _____ _____    ______ ____
ROOT
ATOM      1  C   UNL     1      -0.394   1.102   0.671  0.00  0.00    -0.027 C 
ATOM      2  C   UNL     1       0.477   1.042  -0.348  0.00  0.00    -0.027 C 
ENDROOT
BRANCH   1   3
ATOM      3  C   UNL     1      -0.715   2.351   1.430  0.00  0.00    +0.053 C 
BRANCH   3   4
ATOM      4  C   UNL     1      -2.176   2.680   1.390  0.00  0.00    -0.027 C 
ATOM      5  C   UNL     1      -2.930   2.857   2.486  0.00  0.00    -0.031 C 
BRANCH   5   6
ATOM      6  C   UNL     1      -2.362   2.708   3.867  0.00  0.00    +0.027 C 
BRANCH   6   7
ATOM      7  C   UNL     1      -3.384   2.961   4.963  0.00  0.00    +0.015 C 
BRANCH   7   8
ATOM      8  C   UNL     1      -2.741   2.762   6.334  0.00  0.00    +0.121 C 
BRANCH   8   9
ATOM      9  C   UNL     1      -3.724   3.005   7.446  0.00  0.00    +0.305 C 
ATOM     10  O   UNL     1      -4.894   3.329   7.299  0.00  0.00    -0.251 OA
BRANCH   9  11
ATOM     11  O   UNL     1      -3.176   2.824   8.662  0.00  0.00    -0.481 OA
ATOM     12  H   UNL     1      -2.233   2.564   8.639  0.00  0.00    +0.295 HD
ENDBRANCH   9  11
ENDBRANCH   8   9
ENDBRANCH   7   8
ENDBRANCH   6   7
ENDBRANCH   5   6
ENDBRANCH   3   4
ENDBRANCH   1   3
BRANCH   2  13
ATOM     13  C   UNL     1       1.191   2.224  -0.955  0.00  0.00    +0.053 C 
BRANCH  13  14
ATOM     14  C   UNL     1       0.246   3.265  -1.501  0.00  0.00    -0.027 C 
ATOM     15  C   UNL     1      -0.676   3.046  -2.451  0.00  0.00    -0.027 C 
BRANCH  15  16
ATOM     16  C   UNL     1      -0.837   1.753  -3.184  0.00  0.00    +0.053 C 
BRANCH  16  17
ATOM     17  C   UNL     1      -2.210   1.173  -3.021  0.00  0.00    -0.027 C 
ATOM     18  C   UNL     1      -3.002   0.859  -4.058  0.00  0.00    -0.031 C 
BRANCH  18  19
ATOM     19  C   UNL     1      -2.568   1.101  -5.472  0.00  0.00    +0.027 C 
BRANCH  19  20
ATOM     20  C   UNL     1      -3.597   0.679  -6.503  0.00  0.00    +0.004 C 
BRANCH  20  21
ATOM     21  C   UNL     1      -3.067   0.990  -7.901  0.00  0.00    +0.000 C 
BRANCH  21  22
ATOM     22  C   UNL     1      -4.078   0.585  -8.961  0.00  0.00    -0.003 C 
ATOM     23  C   UNL     1      -3.560   0.894 -10.355  0.00  0.00    +0.004 C 
ENDBRANCH  21  22
ENDBRANCH  20  21
ENDBRANCH  19  20
ENDBRANCH  18  19
ENDBRANCH  16  17
ENDBRANCH  15  16
ENDBRANCH  13  14
ENDBRANCH   2  13
TORSDOF 15
