REMARK  Name = 
REMARK  1 active torsions:
REMARK  status: ('A' for Active; 'I' for Inactive)
REMARK    1  A    between atoms: N_1  and  O_2
REMARK                            x       y       z     vdW  Elec       q    Type
REMARK                         _______ _______ _______ _____ _____    ______ ____
ROOT
ATOM      1  N   UNL     1       0.889  -0.071   0.073  0.00  0.00    +0.153 NA
ATOM      2  O   UNL     1       2.122  -0.040   0.031  0.00  0.00    -0.106 OA
ENDROOT
BRANCH   1   3
ATOM      3  O   UNL     1       0.343   0.689  -0.947  0.00  0.00    -0.378 OA
ATOM      4  H   UNL     1      -0.607   0.569  -0.786  0.00  0.00    +0.331 HD
ENDBRANCH   1   3
TORSDOF 1
