REMARK  Name = 
REMARK  1 active torsions:
REMARK  status: ('A' for Active; 'I' for Inactive)
REMARK    1  A    between atoms: C_1  and  C_2
REMARK                            x       y       z     vdW  Elec       q    Type
REMARK                         _______ _______ _______ _____ _____    ______ ____
ROOT
ATOM      1  C   UNL     1       0.983  -0.077  -0.067  0.00  0.00    +0.082 C 
ATOM      2  C   UNL     1       2.479  -0.108  -0.055  0.00  0.00    +0.220 C 
ATOM      3  O   UNL     1       3.126  -1.082   0.316  0.00  0.00    -0.301 OA
ENDROOT
TORSDOF 0
