REMARK  Name = 
REMARK  17 active torsions:
REMARK  status: ('A' for Active; 'I' for Inactive)
REMARK    1  A    between atoms: C_1  and  N_2
REMARK    2  A    between atoms: C_4  and  O_9
REMARK    3  A    between atoms: C_7  and  C_13
REMARK    4  A    between atoms: C_8  and  O_14
REMARK    5  A    between atoms: C_13  and  O_16
REMARK    6  A    between atoms: O_16  and  P_18
REMARK    7  A    between atoms: P_18  and  O_19
REMARK    8  A    between atoms: P_18  and  O_20
REMARK    9  A    between atoms: O_19  and  P_22
REMARK   10  A    between atoms: P_22  and  O_23
REMARK   11  A    between atoms: P_22  and  O_24
REMARK   12  A    between atoms: O_23  and  C_26
REMARK   13  A    between atoms: C_28  and  O_31
REMARK   14  A    between atoms: C_29  and  C_33
REMARK   15  A    between atoms: C_30  and  O_34
REMARK   16  A    between atoms: C_32  and  O_35
REMARK   17  A    between atoms: C_33  and  O_36
REMARK                            x       y       z     vdW  Elec       q    Type
REMARK                         _______ _______ _______ _____ _____    ______ ____
ROOT
ATOM      1  P   UNL     1       2.555  -2.232  -3.870  0.00  0.00    +0.483 P 
ATOM      2  O   UNL     1       3.245  -2.331  -5.252  0.00  0.00    -0.227 OA
ENDROOT
BRANCH   1   3
ATOM      3  O   UNL     1       3.808  -1.504  -3.125  0.00  0.00    -0.302 OA
ATOM      4  H   UNL     1       4.605  -2.062  -3.089  0.00  0.00    +0.222 HD
ENDBRANCH   1   3
BRANCH   1   5
ATOM      5  O   UNL     1       1.675  -0.950  -4.306  0.00  0.00    -0.186 OA
BRANCH   5   6
ATOM      6  P   UNL     1       1.973   0.594  -4.163  0.00  0.00    +0.486 P 
ATOM      7  O   UNL     1       3.372   1.095  -4.042  0.00  0.00    -0.227 OA
BRANCH   6   8
ATOM      8  O   UNL     1       1.115   0.953  -2.845  0.00  0.00    -0.302 OA
ATOM      9  H   UNL     1       1.665   0.758  -2.062  0.00  0.00    +0.222 HD
ENDBRANCH   6   8
BRANCH   6  10
ATOM     10  O   UNL     1       1.116   1.361  -5.286  0.00  0.00    -0.254 OA
BRANCH  10  11
ATOM     11  C   UNL     1       0.444   0.596  -6.263  0.00  0.00    +0.293 C 
ATOM     12  O   UNL     1      -0.702  -0.046  -5.703  0.00  0.00    -0.340 OA
ATOM     13  C   UNL     1      -0.001   1.491  -7.434  0.00  0.00    +0.202 C 
ATOM     14  C   UNL     1      -1.639   0.881  -5.129  0.00  0.00    +0.178 C 
ATOM     15  C   UNL     1      -0.992   2.548  -6.920  0.00  0.00    +0.179 C 
ATOM     16  C   UNL     1      -2.166   1.864  -6.188  0.00  0.00    +0.177 C 
BRANCH  16  17
ATOM     17  O   UNL     1      -3.034   2.825  -5.581  0.00  0.00    -0.386 OA
ATOM     18  H   UNL     1      -2.491   3.527  -5.178  0.00  0.00    +0.210 HD
ENDBRANCH  16  17
BRANCH  15  19
ATOM     19  O   UNL     1      -1.458   3.362  -8.006  0.00  0.00    -0.386 OA
ATOM     20  H   UNL     1      -1.852   2.782  -8.682  0.00  0.00    +0.210 HD
ENDBRANCH  15  19
BRANCH  13  21
ATOM     21  O   UNL     1       1.119   2.083  -8.099  0.00  0.00    -0.384 OA
ATOM     22  H   UNL     1       1.103   3.043  -7.931  0.00  0.00    +0.210 HD
ENDBRANCH  13  21
BRANCH  14  23
ATOM     23  C   UNL     1      -2.772   0.061  -4.492  0.00  0.00    +0.190 C 
BRANCH  23  24
ATOM     24  O   UNL     1      -2.275  -0.753  -3.418  0.00  0.00    -0.392 OA
ATOM     25  H   UNL     1      -1.855  -0.146  -2.783  0.00  0.00    +0.210 HD
ENDBRANCH  23  24
ENDBRANCH  14  23
ENDBRANCH  10  11
ENDBRANCH   6  10
ENDBRANCH   5   6
ENDBRANCH   1   5
BRANCH   1  26
ATOM     26  O   UNL     1       1.784  -2.123  -2.325  0.00  0.00    -0.284 OA
BRANCH  26  27
ATOM     27  C   UNL     1       0.593  -2.913  -2.238  0.00  0.00    +0.206 C 
BRANCH  27  31
ATOM     28  C   UNL     1      -0.974  -5.741  -3.219  0.00  0.00    +0.255 C 
ATOM     29  O   UNL     1      -0.467  -5.087  -2.026  0.00  0.00    -0.346 OA
ATOM     30  C   UNL     1      -0.103  -5.264  -4.385  0.00  0.00    +0.195 C 
ATOM     31  C   UNL     1       0.800  -4.443  -2.325  0.00  0.00    +0.178 C 
ATOM     32  C   UNL     1       1.213  -5.020  -3.680  0.00  0.00    +0.178 C 
BRANCH  28  33
ATOM     33  N   UNL     1      -2.395  -5.454  -3.406  0.00  0.00    -0.271 N 
ATOM     34  C   UNL     1      -3.142  -6.414  -4.081  0.00  0.00    +0.331 A 
ATOM     35  C   UNL     1      -2.947  -4.248  -3.022  0.00  0.00    +0.098 A 
ATOM     36  N   UNL     1      -4.462  -6.094  -4.289  0.00  0.00    -0.275 N 
ATOM     37  O   UNL     1      -2.705  -7.496  -4.462  0.00  0.00    -0.246 OA
ATOM     38  C   UNL     1      -4.235  -3.965  -3.211  0.00  0.00    +0.088 A 
ATOM     39  C   UNL     1      -5.094  -4.966  -3.862  0.00  0.00    +0.254 A 
ATOM     40  O   UNL     1      -6.296  -4.775  -3.995  0.00  0.00    -0.268 OA
ATOM     41  H   UNL     1      -5.024  -6.793  -4.746  0.00  0.00    +0.173 HD
ENDBRANCH  28  33
BRANCH  32  42
ATOM     42  O   UNL     1       1.924  -6.258  -3.528  0.00  0.00    -0.386 OA
ATOM     43  H   UNL     1       1.547  -6.772  -2.784  0.00  0.00    +0.210 HD
ENDBRANCH  32  42
BRANCH  30  44
ATOM     44  O   UNL     1       0.059  -6.189  -5.452  0.00  0.00    -0.385 OA
ATOM     45  H   UNL     1       0.845  -6.738  -5.245  0.00  0.00    +0.210 HD
ENDBRANCH  30  44
ENDBRANCH  27  31
ENDBRANCH  26  27
ENDBRANCH   1  26
TORSDOF 17
