REMARK  Name = 
REMARK  20 active torsions:
REMARK  status: ('A' for Active; 'I' for Inactive)
REMARK    1  A    between atoms: C_1  and  O_4
REMARK    2  A    between atoms: C_1  and  C_5
REMARK    3  A    between atoms: O_4  and  P_8
REMARK    4  A    between atoms: C_5  and  O_9
REMARK    5  A    between atoms: C_6  and  C_32
REMARK    6  A    between atoms: C_7  and  O_12
REMARK    7  A    between atoms: P_8  and  O_13
REMARK    8  A    between atoms: P_8  and  O_14
REMARK    9  A    between atoms: C_11  and  N_36
REMARK   10  A    between atoms: O_13  and  C_16
REMARK   11  A    between atoms: C_16  and  C_17
REMARK   12  A    between atoms: C_19  and  O_22
REMARK   13  A    between atoms: C_20  and  N_23
REMARK   14  A    between atoms: C_21  and  O_24
REMARK   15  A    between atoms: C_32  and  C_33
REMARK   16  A    between atoms: C_32  and  O_39
REMARK   17  A    between atoms: C_33  and  C_34
REMARK   18  A    between atoms: C_33  and  O_38
REMARK   19  A    between atoms: C_34  and  O_35
REMARK   20  A    between atoms: C_40  and  C_42
REMARK                            x       y       z     vdW  Elec       q    Type
REMARK                         _______ _______ _______ _____ _____    ______ ____
ROOT
ATOM      1  C   UNL     1      18.747 -16.115   0.000  0.00  0.00    +0.294 C 
ATOM      2  O   UNL     1      17.592 -15.447   0.000  0.00  0.00    -0.330 OA
ATOM      3  C   UNL     1      18.747 -17.444   0.000  0.00  0.00    +0.103 C 
ATOM      4  C   UNL     1      16.439 -16.115   0.000  0.00  0.00    +0.194 C 
ATOM      5  C   UNL     1      17.592 -18.130   0.000  0.00  0.00    +0.179 C 
ATOM      6  C   UNL     1      16.439 -17.444   0.000  0.00  0.00    +0.149 C 
ENDROOT
BRANCH   6   7
ATOM      7  N   UNL     1      15.015 -18.415   0.000  0.00  0.00    -0.202 N 
ATOM      8  C   UNL     1      15.014 -19.807   0.000  0.00  0.00    +0.242 C 
ATOM      9  O   UNL     1      16.221 -20.503   0.000  0.00  0.00    -0.273 OA
ATOM     10  C   UNL     1      13.809 -20.503   0.000  0.00  0.00    +0.096 C 
ATOM     11  H   UNL     1      14.145 -17.955   0.000  0.00  0.00    +0.000 HD
ENDBRANCH   6   7
BRANCH   5  12
ATOM     12  O   UNL     1      17.598 -19.447   0.000  0.00  0.00    -0.221 OA
ATOM     13  H   UNL     1      16.760 -19.936   0.000  0.00  0.00    +0.000 HD
ENDBRANCH   5  12
BRANCH   1  14
ATOM     14  C   UNL     1      19.888 -15.447   0.000  0.00  0.00    +0.416 C 
ATOM     15  O   UNL     1      21.030 -16.115   0.000  0.00  0.00    -0.240 OA
BRANCH  14  16
ATOM     16  O   UNL     1      19.859 -14.124   0.000  0.00  0.00    -0.240 OA
ATOM     17  H   UNL     1      20.660 -13.638   0.000  0.00  0.00    +0.000 HD
ENDBRANCH  14  16
ENDBRANCH   1  14
BRANCH   4  18
ATOM     18  C   UNL     1      15.228 -15.395   0.000  0.00  0.00    +0.207 C 
BRANCH  18  19
ATOM     19  O   UNL     1      14.013 -16.083   0.000  0.00  0.00    -0.218 OA
ATOM     20  H   UNL     1      13.177 -15.591   0.000  0.00  0.00    +0.000 HD
ENDBRANCH  18  19
BRANCH  18  21
ATOM     21  C   UNL     1      15.233 -14.003   0.000  0.00  0.00    +0.217 C 
BRANCH  21  22
ATOM     22  O   UNL     1      16.430 -13.312   0.000  0.00  0.00    -0.218 OA
ATOM     23  H   UNL     1      17.271 -13.797   0.000  0.00  0.00    +0.000 HD
ENDBRANCH  21  22
BRANCH  21  24
ATOM     24  C   UNL     1      14.030 -13.303   0.000  0.00  0.00    +0.217 C 
BRANCH  24  25
ATOM     25  O   UNL     1      14.035 -11.912   0.000  0.00  0.00    -0.217 OA
ATOM     26  H   UNL     1      14.877 -11.430   0.000  0.00  0.00    +0.000 HD
ENDBRANCH  24  25
ENDBRANCH  21  24
ENDBRANCH  18  21
ENDBRANCH   4  18
BRANCH   1  27
ATOM     27  O   UNL     1      20.866 -17.708   0.000  0.00  0.00    -0.240 OA
BRANCH  27  28
ATOM     28  P   UNL     1      22.202 -17.708   0.000  0.00  0.00    +0.508 P 
ATOM     29  O   UNL     1      22.202 -16.168   0.000  0.00  0.00    -0.225 OA
BRANCH  28  30
ATOM     30  O   UNL     1      22.202 -19.172   0.000  0.00  0.00    -0.116 OA
ATOM     31  H   UNL     1      21.362 -19.657   0.000  0.00  0.00    +0.000 HD
ENDBRANCH  28  30
BRANCH  28  32
ATOM     32  O   UNL     1      23.519 -17.708   0.000  0.00  0.00    -0.269 OA
BRANCH  32  33
ATOM     33  C   UNL     1      24.849 -17.708   0.000  0.00  0.00    +0.186 C 
BRANCH  33  34
ATOM     34  C   UNL     1      26.108 -18.101   0.000  0.00  0.00    +0.180 C 
ATOM     35  O   UNL     1      27.180 -17.321   0.000  0.00  0.00    -0.331 OA
ATOM     36  C   UNL     1      26.530 -19.360   0.000  0.00  0.00    +0.216 C 
ATOM     37  C   UNL     1      28.269 -18.118   0.000  0.00  0.00    +0.242 C 
ATOM     38  C   UNL     1      27.877 -19.360   0.000  0.00  0.00    +0.234 C 
BRANCH  37  39
ATOM     39  N   UNL     1      29.113 -15.898   0.000  0.00  0.00    -0.254 N 
ATOM     40  C   UNL     1      27.953 -15.225   0.000  0.00  0.00    +0.353 A 
ATOM     41  C   UNL     1      30.272 -15.248   0.000  0.00  0.00    +0.085 A 
ATOM     42  N   UNL     1      27.912 -13.895   0.000  0.00  0.00    -0.174 NA
ATOM     43  O   UNL     1      26.811 -15.880   0.000  0.00  0.00    -0.244 OA
ATOM     44  C   UNL     1      30.272 -13.901   0.000  0.00  0.00    +0.057 A 
ATOM     45  C   UNL     1      29.119 -13.228   0.000  0.00  0.00    +0.176 A 
ATOM     46  N   UNL     1      29.119 -11.903   0.000  0.00  0.00    -0.107 N 
ATOM     47  H   UNL     1      29.971 -11.411   0.000  0.00  0.00    +0.000 HD
ATOM     48  H   UNL     1      28.266 -11.411   0.000  0.00  0.00    +0.000 HD
ENDBRANCH  37  39
BRANCH  36  49
ATOM     49  O   UNL     1      25.768 -20.438   0.000  0.00  0.00    -0.218 OA
ATOM     50  H   UNL     1      24.803 -20.349   0.000  0.00  0.00    +0.000 HD
ENDBRANCH  36  49
BRANCH  38  51
ATOM     51  O   UNL     1      28.656 -20.426   0.000  0.00  0.00    -0.216 OA
ATOM     52  H   UNL     1      28.264 -21.313   0.000  0.00  0.00    +0.000 HD
ENDBRANCH  38  51
ENDBRANCH  33  34
ENDBRANCH  32  33
ENDBRANCH  28  32
ENDBRANCH  27  28
ENDBRANCH   1  27
TORSDOF 19
