REMARK  Name = 
REMARK  6 active torsions:
REMARK  status: ('A' for Active; 'I' for Inactive)
REMARK    1  A    between atoms: C_1  and  N_2
REMARK    2  A    between atoms: N_2  and  C_3
REMARK    3  A    between atoms: N_2  and  C_6
REMARK    4  A    between atoms: N_2  and  C_7
REMARK    5  A    between atoms: C_3  and  C_4
REMARK    6  A    between atoms: C_4  and  O_5
REMARK                            x       y       z     vdW  Elec       q    Type
REMARK                         _______ _______ _______ _____ _____    ______ ____
ROOT
ATOM      1  C   UNL     1       0.978  -0.162  -0.042  0.00  0.00    -0.093 C 
ATOM      2  N   UNL     1       2.498  -0.118  -0.070  0.00  0.00    +0.376 N 
ATOM      3  C   UNL     1       3.037  -0.900   1.127  0.00  0.00    -0.093 C 
ATOM      4  C   UNL     1       2.993  -0.799  -1.347  0.00  0.00    -0.093 C 
ENDROOT
BRANCH   2   5
ATOM      5  C   UNL     1       3.026   1.336   0.045  0.00  0.00    -0.048 C 
BRANCH   5   6
ATOM      6  C   UNL     1       2.565   2.287  -1.073  0.00  0.00    +0.138 C 
BRANCH   6   7
ATOM      7  O   UNL     1       3.062   1.861  -2.339  0.00  0.00    -0.397 OA
ATOM      8  H   UNL     1       3.863   2.378  -2.546  0.00  0.00    +0.209 HD
ENDBRANCH   6   7
ENDBRANCH   5   6
ENDBRANCH   2   5
TORSDOF 3
