REMARK  Name = 
REMARK  8 active torsions:
REMARK  status: ('A' for Active; 'I' for Inactive)
REMARK    1  A    between atoms: C_1  and  C_6
REMARK    2  A    between atoms: C_2  and  O_16
REMARK    3  A    between atoms: C_3  and  O_15
REMARK    4  A    between atoms: C_4  and  N_7
REMARK    5  A    between atoms: C_6  and  O_17
REMARK    6  A    between atoms: O_17  and  P_18
REMARK    7  A    between atoms: P_18  and  O_19
REMARK    8  A    between atoms: P_18  and  O_21
REMARK                            x       y       z     vdW  Elec       q    Type
REMARK                         _______ _______ _______ _____ _____    ______ ____
ROOT
ATOM      1  C   UNL     1       1.390  -0.776  -0.275  0.00  0.00    +0.178 C 
ATOM      2  C   UNL     1      -0.131  -0.888  -0.370  0.00  0.00    +0.178 C 
ATOM      3  C   UNL     1      -0.559   0.556  -0.563  0.00  0.00    +0.195 C 
ATOM      4  C   UNL     1       0.455   1.322   0.308  0.00  0.00    +0.255 C 
ATOM      5  O   UNL     1       1.672   0.552   0.218  0.00  0.00    -0.346 OA
ENDROOT
BRANCH   4   6
ATOM      6  N   UNL     1       0.745   2.713  -0.058  0.00  0.00    -0.270 N 
ATOM      7  C   UNL     1       1.666   3.396   0.756  0.00  0.00    +0.352 A 
ATOM      8  C   UNL     1       0.050   3.388  -1.035  0.00  0.00    +0.096 A 
ATOM      9  N   UNL     1       1.991   4.693   0.429  0.00  0.00    -0.178 NA
ATOM     10  O   UNL     1       2.160   2.872   1.753  0.00  0.00    -0.244 OA
ATOM     11  C   UNL     1       0.284   4.666  -1.308  0.00  0.00    +0.061 A 
ATOM     12  C   UNL     1       1.362   5.298  -0.523  0.00  0.00    +0.123 A 
ATOM     13  N   UNL     1       1.705   6.597  -0.787  0.00  0.00    -0.343 N 
ATOM     14  H   UNL     1       2.581   6.869  -0.352  0.00  0.00    +0.144 HD
ATOM     15  H   UNL     1       1.601   6.939  -1.734  0.00  0.00    +0.144 HD
ENDBRANCH   4   6
BRANCH   3  16
ATOM     16  O   UNL     1      -1.914   0.770  -0.179  0.00  0.00    -0.385 OA
ATOM     17  H   UNL     1      -2.102   0.099   0.513  0.00  0.00    +0.210 HD
ENDBRANCH   3  16
BRANCH   2  18
ATOM     18  O   UNL     1      -0.739  -1.356   0.847  0.00  0.00    -0.386 OA
ATOM     19  H   UNL     1      -0.072  -1.365   1.559  0.00  0.00    +0.210 HD
ENDBRANCH   2  18
BRANCH   1  20
ATOM     20  C   UNL     1       2.100  -0.930  -1.622  0.00  0.00    +0.206 C 
BRANCH  20  21
ATOM     21  O   UNL     1       3.519  -0.887  -1.425  0.00  0.00    -0.284 OA
BRANCH  21  22
ATOM     22  P   UNL     1       4.415  -1.028  -2.898  0.00  0.00    +0.472 P 
ATOM     23  O   UNL     1       4.117  -2.524  -2.960  0.00  0.00    -0.228 OA
BRANCH  22  24
ATOM     24  O   UNL     1       5.826  -0.864  -2.101  0.00  0.00    -0.303 OA
ATOM     25  H   UNL     1       5.942   0.025  -1.728  0.00  0.00    +0.222 HD
ENDBRANCH  22  24
BRANCH  22  26
ATOM     26  O   UNL     1       5.310  -1.169  -4.372  0.00  0.00    -0.303 OA
ATOM     27  H   UNL     1       6.215  -1.399  -4.084  0.00  0.00    +0.222 HD
ENDBRANCH  22  26
ENDBRANCH  21  22
ENDBRANCH  20  21
ENDBRANCH   1  20
TORSDOF 8
