REMARK  Name = 
REMARK  11 active torsions:
REMARK  status: ('A' for Active; 'I' for Inactive)
REMARK    1  A    between atoms: C_1  and  C_2
REMARK    2  A    between atoms: C_1  and  C_3
REMARK    3  A    between atoms: C_1  and  O_4
REMARK    4  A    between atoms: C_2  and  C_5
REMARK    5  A    between atoms: C_2  and  O_6
REMARK    6  A    between atoms: C_3  and  C_7
REMARK    7  A    between atoms: C_5  and  O_9
REMARK    8  A    between atoms: C_7  and  O_10
REMARK    9  A    between atoms: O_9  and  P_11
REMARK   10  A    between atoms: P_11  and  O_12
REMARK   11  A    between atoms: P_11  and  O_13
REMARK                            x       y       z     vdW  Elec       q    Type
REMARK                         _______ _______ _______ _____ _____    ______ ____
ROOT
ATOM      1  C   UNL     1       0.641   0.502   1.239  0.00  0.00    +0.176 C 
ENDROOT
BRANCH   1   2
ATOM      2  O   UNL     1       1.237  -0.329   2.251  0.00  0.00    -0.386 OA
ATOM      3  H   UNL     1       0.838  -1.211   2.261  0.00  0.00    +0.210 HD
ENDBRANCH   1   2
BRANCH   1   4
ATOM      4  C   UNL     1       1.091   0.033  -0.159  0.00  0.00    +0.213 C 
BRANCH   4   5
ATOM      5  C   UNL     1       2.619   0.129  -0.322  0.00  0.00    +0.189 C 
ATOM      6  O   UNL     1       3.265   1.105   0.082  0.00  0.00    -0.292 OA
BRANCH   5   7
ATOM      7  C   UNL     1       3.299  -0.964  -1.143  0.00  0.00    +0.232 C 
BRANCH   7   8
ATOM      8  O   UNL     1       4.710  -0.821  -1.221  0.00  0.00    -0.387 OA
ATOM      9  H   UNL     1       4.894   0.138  -1.253  0.00  0.00    +0.210 HD
ENDBRANCH   7   8
ENDBRANCH   5   7
ENDBRANCH   4   5
BRANCH   4  10
ATOM     10  O   UNL     1       0.550  -1.254  -0.456  0.00  0.00    -0.382 OA
ATOM     11  H   UNL     1       0.593  -1.815   0.335  0.00  0.00    +0.210 HD
ENDBRANCH   4  10
ENDBRANCH   1   4
BRANCH   1  12
ATOM     12  C   UNL     1      -0.897   0.474   1.372  0.00  0.00    +0.206 C 
BRANCH  12  13
ATOM     13  O   UNL     1      -1.261   1.006   2.641  0.00  0.00    -0.284 OA
BRANCH  13  14
ATOM     14  P   UNL     1      -2.948   1.012   3.023  0.00  0.00    +0.472 P 
ATOM     15  O   UNL     1      -4.458   1.019   3.365  0.00  0.00    -0.228 OA
BRANCH  14  16
ATOM     16  O   UNL     1      -2.472   1.881   4.320  0.00  0.00    -0.303 OA
ATOM     17  H   UNL     1      -1.506   2.007   4.255  0.00  0.00    +0.222 HD
ENDBRANCH  14  16
BRANCH  14  18
ATOM     18  O   UNL     1      -3.088   2.283   2.005  0.00  0.00    -0.303 OA
ATOM     19  H   UNL     1      -3.827   2.813   2.367  0.00  0.00    +0.222 HD
ENDBRANCH  14  18
ENDBRANCH  13  14
ENDBRANCH  12  13
ENDBRANCH   1  12
TORSDOF 11
