REMARK  Name = 
REMARK  7 active torsions:
REMARK  status: ('A' for Active; 'I' for Inactive)
REMARK    1  A    between atoms: CA_1  and  C_2
REMARK    2  A    between atoms: CA_1  and  CB_3
REMARK    3  A    between atoms: CA_1  and  N_4
REMARK    4  A    between atoms: C_2  and  O_5
REMARK    5  A    between atoms: CB_3  and  CG_7
REMARK    6  A    between atoms: CG_7  and  SD_8
REMARK    7  A    between atoms: SD_8  and  CE_9
REMARK                            x       y       z     vdW  Elec       q    Type
REMARK                         _______ _______ _______ _____ _____    ______ ____
ROOT
ATOM      1  CA  MET A   1       1.068  -0.017  -0.069  0.00  0.00    +0.161 C 
ENDROOT
BRANCH   1   2
ATOM      2  N   MET A   1       1.805   0.722  -1.114  0.00  0.00    -0.318 NA
ATOM      3  H1  MET A   1       1.330   1.542  -1.471  0.00  0.00    +0.119 HD
ATOM      4  H2  MET A   1       2.114   0.100  -1.864  0.00  0.00    +0.119 HD
ENDBRANCH   1   2
BRANCH   1   5
ATOM      5  C   MET A   1      -0.069  -0.872  -0.655  0.00  0.00    +0.322 C 
ATOM      6  OXT MET A   1      -0.540  -1.851  -0.098  0.00  0.00    -0.249 OA
BRANCH   5   7
ATOM      7  O   MET A   1      -0.546  -0.423  -1.842  0.00  0.00    -0.480 OA
ATOM      8  H   MET A   1      -0.078   0.381  -2.131  0.00  0.00    +0.295 HD
ENDBRANCH   5   7
ENDBRANCH   1   5
BRANCH   1   9
ATOM      9  CB  MET A   1       0.483   0.914   0.999  0.00  0.00    +0.040 C 
BRANCH   9  10
ATOM     10  CG  MET A   1       1.546   1.685   1.782  0.00  0.00    +0.071 C 
BRANCH  10  11
ATOM     11  SD  MET A   1       0.726   2.705   3.055  0.00  0.00    -0.164 S 
ATOM     12  CE  MET A   1       2.188   3.468   3.801  0.00  0.00    +0.084 C 
ENDBRANCH  10  11
ENDBRANCH   9  10
ENDBRANCH   1   9
TORSDOF 6
