REMARK  Name = 
REMARK  4 active torsions:
REMARK  status: ('A' for Active; 'I' for Inactive)
REMARK    1  A    between atoms: C_1  and  C_2
REMARK    2  A    between atoms: C_1  and  C_3
REMARK    3  A    between atoms: C_2  and  O_5
REMARK    4  A    between atoms: C_3  and  C_7
REMARK                            x       y       z     vdW  Elec       q    Type
REMARK                         _______ _______ _______ _____ _____    ______ ____
ROOT
ATOM      1  C   UNL     1       0.960  -0.018  -0.147  0.00  0.00    +0.239 C 
ATOM      2  O   UNL     1       0.397   0.441  -1.136  0.00  0.00    -0.285 OA
ENDROOT
BRANCH   1   3
ATOM      3  C   UNL     1       2.489  -0.020  -0.145  0.00  0.00    +0.373 C 
ATOM      4  O   UNL     1       3.153  -0.449   0.777  0.00  0.00    -0.242 OA
BRANCH   3   5
ATOM      5  O   UNL     1       2.971   0.508  -1.285  0.00  0.00    -0.475 OA
ATOM      6  H   UNL     1       2.216   0.777  -1.862  0.00  0.00    +0.295 HD
ENDBRANCH   3   5
ENDBRANCH   1   3
BRANCH   1   7
ATOM      7  C   UNL     1       0.301  -0.590   1.086  0.00  0.00    +0.083 C 
ATOM      8  C   UNL     1      -1.214  -0.559   1.018  0.00  0.00    +0.012 C 
ENDBRANCH   1   7
TORSDOF 3
