REMARK  Name = 
REMARK  12 active torsions:
REMARK  status: ('A' for Active; 'I' for Inactive)
REMARK    1  A    between atoms: C_1  and  O_3
REMARK    2  A    between atoms: C_2  and  C_6
REMARK    3  A    between atoms: O_3  and  C_7
REMARK    4  A    between atoms: C_4  and  O_9
REMARK    5  A    between atoms: C_6  and  O_11
REMARK    6  A    between atoms: C_8  and  O_14
REMARK    7  A    between atoms: C_10  and  O_15
REMARK    8  A    between atoms: C_13  and  O_18
REMARK    9  A    between atoms: C_16  and  C_20
REMARK   10  A    between atoms: C_17  and  O_21
REMARK   11  A    between atoms: C_19  and  O_22
REMARK   12  A    between atoms: C_20  and  O_23
REMARK                            x       y       z     vdW  Elec       q    Type
REMARK                         _______ _______ _______ _____ _____    ______ ____
ROOT
ATOM      1  O   UNL     1       0.941   0.742  -1.731  0.00  0.00    -0.340 OA
ENDROOT
BRANCH   1   2
ATOM      2  C   UNL     1       0.494   0.169  -0.468  0.00  0.00    +0.183 C 
ATOM      3  C   UNL     1      -1.064   0.026  -0.492  0.00  0.00    +0.178 C 
ATOM      4  C   UNL     1       0.992   0.891   0.814  0.00  0.00    +0.179 C 
ATOM      5  O   UNL     1      -1.783   1.131   0.088  0.00  0.00    -0.341 OA
ATOM      6  C   UNL     1       0.105   2.061   1.244  0.00  0.00    +0.201 C 
ATOM      7  C   UNL     1      -1.338   1.569   1.375  0.00  0.00    +0.279 C 
BRANCH   4   8
ATOM      8  O   UNL     1       1.069  -0.069   1.884  0.00  0.00    -0.386 OA
ATOM      9  H   UNL     1       1.878  -0.594   1.750  0.00  0.00    +0.210 HD
ENDBRANCH   4   8
BRANCH   6  10
ATOM     10  O   UNL     1       0.203   3.132   0.300  0.00  0.00    -0.384 OA
ATOM     11  H   UNL     1      -0.415   2.927  -0.431  0.00  0.00    +0.210 HD
ENDBRANCH   6  10
BRANCH   7  12
ATOM     12  O   UNL     1      -1.501   0.585   2.387  0.00  0.00    -0.365 OA
ATOM     13  H   UNL     1      -0.616   0.206   2.570  0.00  0.00    +0.213 HD
ENDBRANCH   7  12
BRANCH   3  14
ATOM     14  C   UNL     1      -1.595  -1.296   0.092  0.00  0.00    +0.190 C 
BRANCH  14  15
ATOM     15  O   UNL     1      -0.945  -2.424  -0.494  0.00  0.00    -0.392 OA
ATOM     16  H   UNL     1      -1.345  -3.214  -0.075  0.00  0.00    +0.210 HD
ENDBRANCH  14  15
ENDBRANCH   3  14
ENDBRANCH   1   2
BRANCH   1  17
ATOM     17  C   UNL     1       2.309   1.175  -1.819  0.00  0.00    +0.282 C 
ATOM     18  O   UNL     1       2.597   1.742  -3.106  0.00  0.00    -0.341 OA
ATOM     19  C   UNL     1       3.387   0.182  -1.264  0.00  0.00    +0.201 C 
ATOM     20  C   UNL     1       3.309   0.960  -4.071  0.00  0.00    +0.178 C 
ATOM     21  C   UNL     1       4.142  -0.624  -2.326  0.00  0.00    +0.179 C 
ATOM     22  C   UNL     1       4.562   0.318  -3.456  0.00  0.00    +0.177 C 
BRANCH  19  23
ATOM     23  O   UNL     1       4.340   0.904  -0.458  0.00  0.00    -0.384 OA
ATOM     24  H   UNL     1       4.644   1.687  -0.955  0.00  0.00    +0.210 HD
ENDBRANCH  19  23
BRANCH  21  25
ATOM     25  O   UNL     1       3.346  -1.701  -2.843  0.00  0.00    -0.386 OA
ATOM     26  H   UNL     1       2.824  -2.090  -2.120  0.00  0.00    +0.210 HD
ENDBRANCH  21  25
BRANCH  22  27
ATOM     27  O   UNL     1       5.404  -0.344  -4.389  0.00  0.00    -0.386 OA
ATOM     28  H   UNL     1       4.890  -0.511  -5.199  0.00  0.00    +0.210 HD
ENDBRANCH  22  27
BRANCH  20  29
ATOM     29  C   UNL     1       2.388   0.016  -4.862  0.00  0.00    +0.190 C 
BRANCH  29  30
ATOM     30  O   UNL     1       3.141  -0.822  -5.743  0.00  0.00    -0.392 OA
ATOM     31  H   UNL     1       3.216  -1.688  -5.290  0.00  0.00    +0.210 HD
ENDBRANCH  29  30
ENDBRANCH  20  29
ENDBRANCH   1  17
TORSDOF 12
