REMARK  Name = 
REMARK  1 active torsions:
REMARK  status: ('A' for Active; 'I' for Inactive)
REMARK    1  A    between atoms: C_2  and  C_6
REMARK                            x       y       z     vdW  Elec       q    Type
REMARK                         _______ _______ _______ _____ _____    ______ ____
ROOT
ATOM      1  C   UNL     1       0.800  -0.770   0.006  0.00  0.00    +0.257 A 
ATOM      2  C   UNL     1       1.206   0.662   0.011  0.00  0.00    +0.030 A 
ATOM      3  N   UNL     1      -0.547  -1.014  -0.003  0.00  0.00    -0.275 N 
ATOM      4  O   UNL     1       1.620  -1.681   0.013  0.00  0.00    -0.267 OA
ATOM      5  C   UNL     1       0.235   1.585  -0.012  0.00  0.00    +0.096 A 
ATOM      6  C   UNL     1       2.658   1.008   0.043  0.00  0.00    +0.051 C 
ATOM      7  C   UNL     1      -1.524  -0.062  -0.019  0.00  0.00    +0.327 A 
ATOM      8  N   UNL     1      -1.085   1.233  -0.029  0.00  0.00    -0.314 N 
ATOM      9  O   UNL     1      -2.718  -0.343  -0.025  0.00  0.00    -0.247 OA
ATOM     10  H   UNL     1      -0.842  -1.977  -0.002  0.00  0.00    +0.173 HD
ATOM     11  H   UNL     1      -1.809   1.942  -0.042  0.00  0.00    +0.170 HD
ENDROOT
TORSDOF 0
