REMARK  Name = 
REMARK  3 active torsions:
REMARK  status: ('A' for Active; 'I' for Inactive)
REMARK    1  A    between atoms: CA_1  and  C_2
REMARK    2  A    between atoms: CA_1  and  N_3
REMARK    3  A    between atoms: C_2  and  O_4
REMARK                            x       y       z     vdW  Elec       q    Type
REMARK                         _______ _______ _______ _____ _____    ______ ____
ROOT
ATOM      1  CA  GLY A   1       1.071  -0.063   0.040  0.00  0.00    +0.105 C 
ENDROOT
BRANCH   1   2
ATOM      2  N   GLY A   1       2.538  -0.086   0.043  0.00  0.00    -0.328 NA
ATOM      3  H1  GLY A   1       2.855  -0.806  -0.607  0.00  0.00    +0.118 HD
ATOM      4  H2  GLY A   1       2.858  -0.402   0.959  0.00  0.00    +0.118 HD
ENDBRANCH   1   2
BRANCH   1   5
ATOM      5  C   GLY A   1       0.520   0.476  -1.283  0.00  0.00    +0.170 C 
BRANCH   5   6
ATOM      6  O   GLY A   1       0.964  -0.330  -2.369  0.00  0.00    -0.394 OA
ATOM      7  H   GLY A   1       1.920  -0.165  -2.434  0.00  0.00    +0.209 HD
ENDBRANCH   5   6
ENDBRANCH   1   5
TORSDOF 3
