REMARK  Name = 
REMARK  9 active torsions:
REMARK  status: ('A' for Active; 'I' for Inactive)
REMARK    1  A    between atoms: C_1  and  O_4
REMARK    2  A    between atoms: C_3  and  O_7
REMARK    3  A    between atoms: O_4  and  P_8
REMARK    4  A    between atoms: C_5  and  C_10
REMARK    5  A    between atoms: C_6  and  O_11
REMARK    6  A    between atoms: P_8  and  O_12
REMARK    7  A    between atoms: P_8  and  O_13
REMARK    8  A    between atoms: C_9  and  O_15
REMARK    9  A    between atoms: C_10  and  O_16
REMARK                            x       y       z     vdW  Elec       q    Type
REMARK                         _______ _______ _______ _____ _____    ______ ____
ROOT
ATOM      1  C   UNL     1       0.976   1.408  -0.187  0.00  0.00    +0.293 C 
ATOM      2  O   UNL     1      -0.257   1.997   0.243  0.00  0.00    -0.340 OA
ATOM      3  C   UNL     1       1.070  -0.053   0.293  0.00  0.00    +0.202 C 
ATOM      4  C   UNL     1      -1.433   1.304  -0.227  0.00  0.00    +0.178 C 
ATOM      5  C   UNL     1      -0.124  -0.853  -0.234  0.00  0.00    +0.179 C 
ATOM      6  C   UNL     1      -1.440  -0.178   0.182  0.00  0.00    +0.177 C 
ENDROOT
BRANCH   3   7
ATOM      7  O   UNL     1       2.290  -0.685  -0.106  0.00  0.00    -0.384 OA
ATOM      8  H   UNL     1       2.114  -1.654  -0.088  0.00  0.00    +0.210 HD
ENDBRANCH   3   7
BRANCH   5   9
ATOM      9  O   UNL     1      -0.045  -2.201   0.259  0.00  0.00    -0.386 OA
ATOM     10  H   UNL     1      -0.450  -2.233   1.145  0.00  0.00    +0.210 HD
ENDBRANCH   5   9
BRANCH   6  11
ATOM     11  O   UNL     1      -2.563  -0.852  -0.396  0.00  0.00    -0.386 OA
ATOM     12  H   UNL     1      -2.274  -1.326  -1.196  0.00  0.00    +0.210 HD
ENDBRANCH   6  11
BRANCH   1  13
ATOM     13  O   UNL     1       1.109   1.487  -1.596  0.00  0.00    -0.254 OA
BRANCH  13  14
ATOM     14  P   UNL     1       1.130   3.120  -2.165  0.00  0.00    +0.475 P 
ATOM     15  O   UNL     1       1.148   4.582  -2.675  0.00  0.00    -0.227 OA
BRANCH  14  16
ATOM     16  O   UNL     1       2.752   3.032  -2.037  0.00  0.00    -0.303 OA
ATOM     17  H   UNL     1       3.117   2.775  -2.901  0.00  0.00    +0.222 HD
ENDBRANCH  14  16
BRANCH  14  18
ATOM     18  O   UNL     1       1.049   2.496  -3.674  0.00  0.00    -0.303 OA
ATOM     19  H   UNL     1       0.817   3.234  -4.273  0.00  0.00    +0.222 HD
ENDBRANCH  14  18
ENDBRANCH  13  14
ENDBRANCH   1  13
BRANCH   4  20
ATOM     20  C   UNL     1      -2.652   2.047   0.341  0.00  0.00    +0.190 C 
BRANCH  20  21
ATOM     21  O   UNL     1      -2.603   2.082   1.768  0.00  0.00    -0.392 OA
ATOM     22  H   UNL     1      -1.764   2.522   1.998  0.00  0.00    +0.210 HD
ENDBRANCH  20  21
ENDBRANCH   4  20
TORSDOF 9
