REMARK  Name = 
REMARK  5 active torsions:
REMARK  status: ('A' for Active; 'I' for Inactive)
REMARK    1  A    between atoms: C_5  and  C_6
REMARK    2  A    between atoms: C_6  and  C_7
REMARK    3  A    between atoms: C_7  and  C_8
REMARK    4  A    between atoms: C_8  and  C_9
REMARK    5  A    between atoms: C_9  and  C_10
REMARK                            x       y       z     vdW  Elec       q    Type
REMARK                         _______ _______ _______ _____ _____    ______ ____
ROOT
ATOM      1  C   UNL     1      -1.453   2.532  -2.364  0.00  0.00    +0.002 C 
ENDROOT
BRANCH   1   2
ATOM      2  C   UNL     1      -1.196   1.093  -1.907  0.00  0.00    +0.015 C 
BRANCH   2   7
ATOM      3  S   UNL     1      -0.872  -0.801   0.057  0.00  0.00    -0.090 S 
ATOM      4  S   UNL     1       1.153  -0.511   0.242  0.00  0.00    -0.093 S 
ATOM      5  C   UNL     1       1.131   1.302   0.187  0.00  0.00    +0.082 C 
ATOM      6  C   UNL     1      -0.305   1.755   0.437  0.00  0.00    +0.026 C 
ATOM      7  C   UNL     1      -1.294   0.917  -0.384  0.00  0.00    +0.058 C 
ENDBRANCH   2   7
ENDBRANCH   1   2
BRANCH   1   8
ATOM      8  C   UNL     1      -1.338   2.646  -3.884  0.00  0.00    +0.009 C 
BRANCH   8   9
ATOM      9  C   UNL     1      -1.575   4.077  -4.359  0.00  0.00    +0.095 C 
BRANCH   9  10
ATOM     10  C   UNL     1      -1.455   4.189  -5.865  0.00  0.00    +0.210 C 
ATOM     11  N   UNL     1      -1.653   5.445  -6.352  0.00  0.00    -0.329 N 
ATOM     12  O   UNL     1      -1.198   3.259  -6.617  0.00  0.00    -0.276 OA
ATOM     13  H   UNL     1      -1.859   6.243  -5.767  0.00  0.00    +0.145 HD
ATOM     14  H   UNL     1      -1.583   5.576  -7.352  0.00  0.00    +0.145 HD
ENDBRANCH   9  10
ENDBRANCH   8   9
ENDBRANCH   1   8
TORSDOF 5
