REMARK  Name = 
REMARK  7 active torsions:
REMARK  status: ('A' for Active; 'I' for Inactive)
REMARK    1  A    between atoms: CB_1  and  CG_2
REMARK    2  A    between atoms: CB_1  and  CA_3
REMARK    3  A    between atoms: CG_2  and  CD_4
REMARK    4  A    between atoms: CA_3  and  C_5
REMARK    5  A    between atoms: CA_3  and  N_6
REMARK    6  A    between atoms: CD_4  and  NE_7
REMARK    7  A    between atoms: C_5  and  O_8
REMARK                            x       y       z     vdW  Elec       q    Type
REMARK                         _______ _______ _______ _____ _____    ______ ____
ROOT
ATOM      1  CG  ARG A   1       0.458   1.265   0.474  0.00  0.00    +0.023 C 
ENDROOT
BRANCH   1   2
ATOM      2  CB  ARG A   1       0.993  -0.083  -0.031  0.00  0.00    +0.031 C 
BRANCH   2   3
ATOM      3  CA  ARG A   1       0.631  -0.443  -1.482  0.00  0.00    +0.161 C 
BRANCH   3   4
ATOM      4  N   ARG A   1      -0.822  -0.550  -1.669  0.00  0.00    -0.318 NA
ATOM      5  H1  ARG A   1      -1.313  -1.157  -1.019  0.00  0.00    +0.119 HD
ATOM      6  H2  ARG A   1      -1.138  -0.576  -2.634  0.00  0.00    +0.119 HD
ENDBRANCH   3   4
BRANCH   3   7
ATOM      7  C   ARG A   1       1.339  -1.758  -1.872  0.00  0.00    +0.322 C 
ATOM      8  OXT ARG A   1       2.547  -1.930  -1.821  0.00  0.00    -0.249 OA
BRANCH   7   9
ATOM      9  O   ARG A   1       0.486  -2.729  -2.276  0.00  0.00    -0.480 OA
ATOM     10  H   ARG A   1      -0.426  -2.385  -2.247  0.00  0.00    +0.295 HD
ENDBRANCH   7   9
ENDBRANCH   3   7
ENDBRANCH   2   3
ENDBRANCH   1   2
BRANCH   1  11
ATOM     11  CD  ARG A   1      -1.059   1.329   0.641  0.00  0.00    +0.115 C 
BRANCH  11  12
ATOM     12  NE  ARG A   1      -1.449   2.638   1.127  0.00  0.00    -0.356 N 
ATOM     13  CZ  ARG A   1      -1.868   3.634   0.317  0.00  0.00    +0.188 C 
ATOM     14  NH1 ARG A   1      -2.479   4.613   1.012  0.00  0.00    -0.370 N 
ATOM     15  NH2 ARG A   1      -1.753   3.740  -0.955  0.00  0.00    -0.269 NA
ATOM     16  HE  ARG A   1      -1.972   2.600   1.995  0.00  0.00    +0.162 HD
ATOM     17 HH11 ARG A   1      -1.965   4.881   1.835  0.00  0.00    +0.159 HD
ATOM     18 HH12 ARG A   1      -2.614   5.414   0.400  0.00  0.00    +0.159 HD
ATOM     19  HH2 ARG A   1      -1.272   2.922  -1.328  0.00  0.00    +0.190 HD
ENDBRANCH  11  12
ENDBRANCH   1  11
TORSDOF 7
