MODEL 1
REMARK VINA RESULT:    -7.594      0.000      0.000
REMARK INTER + INTRA:          -9.025
REMARK INTER:                  -8.704
REMARK INTRA:                  -0.321
REMARK UNBOUND:                -0.321
REMARK  Name = 
REMARK  4 active torsions:
REMARK  status: ('A' for Active; 'I' for Inactive)
REMARK    1  A    between atoms: C_1  and  C_2
REMARK    2  A    between atoms: C_14  and  O_17
REMARK    3  A    between atoms: O_17  and  C_19
REMARK    4  A    between atoms: C_18  and  O_20
REMARK                            x       y       z     vdW  Elec       q    Type
REMARK                         _______ _______ _______ _____ _____    ______ ____
ROOT
ATOM      1  C   UNL     1      -8.890   0.648  10.777  0.00  0.00    +0.064 A 
ATOM      2  C   UNL     1      -9.472  -0.132  11.900  0.00  0.00    +0.200 A 
ATOM      3  C   UNL     1      -9.627   0.790   9.665  0.00  0.00    +0.208 A 
ATOM      4  C   UNL     1     -10.830  -0.664  11.690  0.00  0.00    +0.065 A 
ATOM      5  O   UNL     1      -8.870  -0.330  12.949  0.00  0.00    -0.286 OA
ATOM      6  O   UNL     1     -10.883   0.277   9.450  0.00  0.00    -0.462 OA
ATOM      7  C   UNL     1     -11.465  -0.436  10.470  0.00  0.00    +0.142 A 
ATOM      8  C   UNL     1     -11.473  -1.389  12.698  0.00  0.00    +0.019 A 
ATOM      9  C   UNL     1     -12.749  -0.938  10.243  0.00  0.00    +0.092 A 
ATOM     10  C   UNL     1     -12.755  -1.890  12.474  0.00  0.00    +0.046 A 
ATOM     11  C   UNL     1     -13.379  -1.666  11.251  0.00  0.00    +0.120 A 
ENDROOT
BRANCH   1  12
ATOM     12  C   UNL     1      -7.562   1.260  10.882  0.00  0.00    -0.011 A 
ATOM     13  C   UNL     1      -6.422   0.542  10.502  0.00  0.00    +0.012 A 
ATOM     14  C   UNL     1      -7.416   2.571  11.349  0.00  0.00    +0.012 A 
ATOM     15  C   UNL     1      -5.152   1.126  10.579  0.00  0.00    +0.046 A 
ATOM     16  C   UNL     1      -6.146   3.150  11.426  0.00  0.00    +0.046 A 
ATOM     17  C   UNL     1      -5.009   2.434  11.042  0.00  0.00    +0.120 A 
BRANCH  17  18
ATOM     18  O   UNL     1      -3.831   3.119  11.164  0.00  0.00    -0.495 OA
ATOM     19  C   UNL     1      -3.222   3.123  12.450  0.00  0.00    +0.277 C 
ENDBRANCH  17  18
ENDBRANCH   1  12
BRANCH  11  20
ATOM     20  O   UNL     1     -14.628  -2.186  11.076  0.00  0.00    -0.507 OA
ATOM     21  H   UNL     1     -14.735  -2.959  11.654  0.00  0.00    +0.292 HD
ENDBRANCH  11  20
TORSDOF 3
ENDMDL
MODEL 2
REMARK VINA RESULT:    -6.957      1.462      7.500
REMARK INTER + INTRA:          -8.295
REMARK INTER:                  -7.977
REMARK INTRA:                  -0.318
REMARK UNBOUND:                -0.321
REMARK  Name = 
REMARK  4 active torsions:
REMARK  status: ('A' for Active; 'I' for Inactive)
REMARK    1  A    between atoms: C_1  and  C_2
REMARK    2  A    between atoms: C_14  and  O_17
REMARK    3  A    between atoms: O_17  and  C_19
REMARK    4  A    between atoms: C_18  and  O_20
REMARK                            x       y       z     vdW  Elec       q    Type
REMARK                         _______ _______ _______ _____ _____    ______ ____
ROOT
ATOM      1  C   UNL     1      -7.931   0.852  11.039  0.00  0.00    +0.064 A 
ATOM      2  C   UNL     1      -7.667   2.289  11.309  0.00  0.00    +0.200 A 
ATOM      3  C   UNL     1      -6.875   0.050  10.830  0.00  0.00    +0.208 A 
ATOM      4  C   UNL     1      -6.252   2.697  11.344  0.00  0.00    +0.065 A 
ATOM      5  O   UNL     1      -8.564   3.102  11.495  0.00  0.00    -0.286 OA
ATOM      6  O   UNL     1      -5.554   0.425  10.836  0.00  0.00    -0.462 OA
ATOM      7  C   UNL     1      -5.265   1.742  11.100  0.00  0.00    +0.142 A 
ATOM      8  C   UNL     1      -5.901   4.023  11.617  0.00  0.00    +0.019 A 
ATOM      9  C   UNL     1      -3.917   2.107  11.119  0.00  0.00    +0.092 A 
ATOM     10  C   UNL     1      -4.555   4.388  11.637  0.00  0.00    +0.046 A 
ATOM     11  C   UNL     1      -3.577   3.432  11.384  0.00  0.00    +0.120 A 
ENDROOT
BRANCH   1  12
ATOM     12  C   UNL     1      -9.296   0.318  11.017  0.00  0.00    -0.011 A 
ATOM     13  C   UNL     1      -9.857  -0.231  12.176  0.00  0.00    +0.012 A 
ATOM     14  C   UNL     1     -10.060   0.361   9.846  0.00  0.00    +0.012 A 
ATOM     15  C   UNL     1     -11.168  -0.723  12.170  0.00  0.00    +0.046 A 
ATOM     16  C   UNL     1     -11.368  -0.133   9.843  0.00  0.00    +0.046 A 
ATOM     17  C   UNL     1     -11.929  -0.676  11.002  0.00  0.00    +0.120 A 
BRANCH  17  18
ATOM     18  O   UNL     1     -13.216  -1.120  10.863  0.00  0.00    -0.495 OA
ATOM     19  C   UNL     1     -13.563  -2.307  11.564  0.00  0.00    +0.277 C 
ENDBRANCH  17  18
ENDBRANCH   1  12
BRANCH  11  20
ATOM     20  O   UNL     1      -2.276   3.840  11.403  0.00  0.00    -0.507 OA
ATOM     21  H   UNL     1      -2.110   4.338  12.220  0.00  0.00    +0.292 HD
ENDBRANCH  11  20
TORSDOF 3
ENDMDL
MODEL 3
REMARK VINA RESULT:    -6.846      2.797      3.638
REMARK INTER + INTRA:          -8.168
REMARK INTER:                  -7.829
REMARK INTRA:                  -0.339
REMARK UNBOUND:                -0.321
REMARK  Name = 
REMARK  4 active torsions:
REMARK  status: ('A' for Active; 'I' for Inactive)
REMARK    1  A    between atoms: C_1  and  C_2
REMARK    2  A    between atoms: C_14  and  O_17
REMARK    3  A    between atoms: O_17  and  C_19
REMARK    4  A    between atoms: C_18  and  O_20
REMARK                            x       y       z     vdW  Elec       q    Type
REMARK                         _______ _______ _______ _____ _____    ______ ____
ROOT
ATOM      1  C   UNL     1      -9.029   2.808  12.912  0.00  0.00    +0.064 A 
ATOM      2  C   UNL     1      -8.915   2.077  11.623  0.00  0.00    +0.200 A 
ATOM      3  C   UNL     1     -10.161   2.666  13.615  0.00  0.00    +0.208 A 
ATOM      4  C   UNL     1     -10.066   1.236  11.248  0.00  0.00    +0.065 A 
ATOM      5  O   UNL     1      -7.928   2.156  10.902  0.00  0.00    -0.286 OA
ATOM      6  O   UNL     1     -11.249   1.904  13.262  0.00  0.00    -0.462 OA
ATOM      7  C   UNL     1     -11.179   1.197  12.087  0.00  0.00    +0.142 A 
ATOM      8  C   UNL     1     -10.043   0.488  10.067  0.00  0.00    +0.019 A 
ATOM      9  C   UNL     1     -12.285   0.415  11.747  0.00  0.00    +0.092 A 
ATOM     10  C   UNL     1     -11.147  -0.296   9.727  0.00  0.00    +0.046 A 
ATOM     11  C   UNL     1     -12.257  -0.322  10.565  0.00  0.00    +0.120 A 
ENDROOT
BRANCH   1  12
ATOM     12  C   UNL     1      -7.934   3.646  13.411  0.00  0.00    -0.011 A 
ATOM     13  C   UNL     1      -7.866   5.000  13.061  0.00  0.00    +0.012 A 
ATOM     14  C   UNL     1      -6.952   3.111  14.252  0.00  0.00    +0.012 A 
ATOM     15  C   UNL     1      -6.835   5.812  13.550  0.00  0.00    +0.046 A 
ATOM     16  C   UNL     1      -5.924   3.924  14.737  0.00  0.00    +0.046 A 
ATOM     17  C   UNL     1      -5.860   5.277  14.391  0.00  0.00    +0.120 A 
BRANCH  17  18
ATOM     18  O   UNL     1      -4.806   5.959  14.936  0.00  0.00    -0.495 OA
ATOM     19  C   UNL     1      -4.065   5.291  15.949  0.00  0.00    +0.277 C 
ENDBRANCH  17  18
ENDBRANCH   1  12
BRANCH  11  20
ATOM     20  O   UNL     1     -13.316  -1.093  10.184  0.00  0.00    -0.507 OA
ATOM     21  H   UNL     1     -13.302  -1.199   9.218  0.00  0.00    +0.292 HD
ENDBRANCH  11  20
TORSDOF 3
ENDMDL
MODEL 4
REMARK VINA RESULT:    -6.761      2.444      7.699
REMARK INTER + INTRA:          -8.070
REMARK INTER:                  -7.749
REMARK INTRA:                  -0.321
REMARK UNBOUND:                -0.321
REMARK  Name = 
REMARK  4 active torsions:
REMARK  status: ('A' for Active; 'I' for Inactive)
REMARK    1  A    between atoms: C_1  and  C_2
REMARK    2  A    between atoms: C_14  and  O_17
REMARK    3  A    between atoms: O_17  and  C_19
REMARK    4  A    between atoms: C_18  and  O_20
REMARK                            x       y       z     vdW  Elec       q    Type
REMARK                         _______ _______ _______ _____ _____    ______ ____
ROOT
ATOM      1  C   UNL     1      -8.851   2.359  12.620  0.00  0.00    +0.064 A 
ATOM      2  C   UNL     1      -8.163   2.670  13.901  0.00  0.00    +0.200 A 
ATOM      3  C   UNL     1      -8.309   2.832  11.488  0.00  0.00    +0.208 A 
ATOM      4  C   UNL     1      -6.923   3.460  13.800  0.00  0.00    +0.065 A 
ATOM      5  O   UNL     1      -8.589   2.298  14.987  0.00  0.00    -0.286 OA
ATOM      6  O   UNL     1      -7.167   3.589  11.385  0.00  0.00    -0.462 OA
ATOM      7  C   UNL     1      -6.490   3.884  12.544  0.00  0.00    +0.142 A 
ATOM      8  C   UNL     1      -6.190   3.781  14.946  0.00  0.00    +0.019 A 
ATOM      9  C   UNL     1      -5.323   4.642  12.424  0.00  0.00    +0.092 A 
ATOM     10  C   UNL     1      -5.023   4.536  14.828  0.00  0.00    +0.046 A 
ATOM     11  C   UNL     1      -4.603   4.963  13.572  0.00  0.00    +0.120 A 
ENDROOT
BRANCH   1  12
ATOM     12  C   UNL     1     -10.072   1.549  12.589  0.00  0.00    -0.011 A 
ATOM     13  C   UNL     1     -11.315   2.136  12.851  0.00  0.00    +0.012 A 
ATOM     14  C   UNL     1     -10.014   0.185  12.284  0.00  0.00    +0.012 A 
ATOM     15  C   UNL     1     -12.488   1.373  12.801  0.00  0.00    +0.046 A 
ATOM     16  C   UNL     1     -11.188  -0.574  12.238  0.00  0.00    +0.046 A 
ATOM     17  C   UNL     1     -12.429   0.014  12.495  0.00  0.00    +0.120 A 
BRANCH  17  18
ATOM     18  O   UNL     1     -13.496  -0.838  12.413  0.00  0.00    -0.495 OA
ATOM     19  C   UNL     1     -13.271  -2.088  11.772  0.00  0.00    +0.277 C 
ENDBRANCH  17  18
ENDBRANCH   1  12
BRANCH  11  20
ATOM     20  O   UNL     1      -3.463   5.709  13.510  0.00  0.00    -0.507 OA
ATOM     21  H   UNL     1      -3.614   6.475  12.932  0.00  0.00    +0.292 HD
ENDBRANCH  11  20
TORSDOF 3
ENDMDL
MODEL 5
REMARK VINA RESULT:    -6.634      2.261      3.583
REMARK INTER + INTRA:          -7.925
REMARK INTER:                  -7.612
REMARK INTRA:                  -0.313
REMARK UNBOUND:                -0.321
REMARK  Name = 
REMARK  4 active torsions:
REMARK  status: ('A' for Active; 'I' for Inactive)
REMARK    1  A    between atoms: C_1  and  C_2
REMARK    2  A    between atoms: C_14  and  O_17
REMARK    3  A    between atoms: O_17  and  C_19
REMARK    4  A    between atoms: C_18  and  O_20
REMARK                            x       y       z     vdW  Elec       q    Type
REMARK                         _______ _______ _______ _____ _____    ______ ____
ROOT
ATOM      1  C   UNL     1      -6.634   2.921  11.500  0.00  0.00    +0.064 A 
ATOM      2  C   UNL     1      -7.123   1.733  10.753  0.00  0.00    +0.200 A 
ATOM      3  C   UNL     1      -7.542   3.688  12.120  0.00  0.00    +0.208 A 
ATOM      4  C   UNL     1      -8.577   1.496  10.784  0.00  0.00    +0.065 A 
ATOM      5  O   UNL     1      -6.373   0.981  10.141  0.00  0.00    -0.286 OA
ATOM      6  O   UNL     1      -8.902   3.490  12.135  0.00  0.00    -0.462 OA
ATOM      7  C   UNL     1      -9.395   2.392  11.472  0.00  0.00    +0.142 A 
ATOM      8  C   UNL     1      -9.130   0.389  10.134  0.00  0.00    +0.019 A 
ATOM      9  C   UNL     1     -10.777   2.194  11.508  0.00  0.00    +0.092 A 
ATOM     10  C   UNL     1     -10.511   0.188  10.171  0.00  0.00    +0.046 A 
ATOM     11  C   UNL     1     -11.321   1.092  10.851  0.00  0.00    +0.120 A 
ENDROOT
BRANCH   1  12
ATOM     12  C   UNL     1      -5.204   3.239  11.574  0.00  0.00    -0.011 A 
ATOM     13  C   UNL     1      -4.570   3.885  10.506  0.00  0.00    +0.012 A 
ATOM     14  C   UNL     1      -4.460   2.915  12.712  0.00  0.00    +0.012 A 
ATOM     15  C   UNL     1      -3.210   4.211  10.578  0.00  0.00    +0.046 A 
ATOM     16  C   UNL     1      -3.102   3.241  12.779  0.00  0.00    +0.046 A 
ATOM     17  C   UNL     1      -2.470   3.890  11.716  0.00  0.00    +0.120 A 
BRANCH  17  18
ATOM     18  O   UNL     1      -1.142   4.153  11.911  0.00  0.00    -0.495 OA
ATOM     19  C   UNL     1      -0.534   3.568  13.056  0.00  0.00    +0.277 C 
ENDBRANCH  17  18
ENDBRANCH   1  12
BRANCH  11  20
ATOM     20  O   UNL     1     -12.665   0.860  10.848  0.00  0.00    -0.507 OA
ATOM     21  H   UNL     1     -12.951   0.634  11.748  0.00  0.00    +0.292 HD
ENDBRANCH  11  20
TORSDOF 3
ENDMDL
MODEL 6
REMARK VINA RESULT:    -6.543      2.089      3.097
REMARK INTER + INTRA:          -7.820
REMARK INTER:                  -7.503
REMARK INTRA:                  -0.316
REMARK UNBOUND:                -0.321
REMARK  Name = 
REMARK  4 active torsions:
REMARK  status: ('A' for Active; 'I' for Inactive)
REMARK    1  A    between atoms: C_1  and  C_2
REMARK    2  A    between atoms: C_14  and  O_17
REMARK    3  A    between atoms: O_17  and  C_19
REMARK    4  A    between atoms: C_18  and  O_20
REMARK                            x       y       z     vdW  Elec       q    Type
REMARK                         _______ _______ _______ _____ _____    ______ ____
ROOT
ATOM      1  C   UNL     1      -7.309   2.486  11.722  0.00  0.00    +0.064 A 
ATOM      2  C   UNL     1      -8.694   2.682  12.225  0.00  0.00    +0.200 A 
ATOM      3  C   UNL     1      -7.119   1.582  10.749  0.00  0.00    +0.208 A 
ATOM      4  C   UNL     1      -9.742   1.870  11.582  0.00  0.00    +0.065 A 
ATOM      5  O   UNL     1      -8.966   3.472  13.121  0.00  0.00    -0.286 OA
ATOM      6  O   UNL     1      -8.085   0.802  10.161  0.00  0.00    -0.462 OA
ATOM      7  C   UNL     1      -9.382   0.966  10.584  0.00  0.00    +0.142 A 
ATOM      8  C   UNL     1     -11.079   2.003  11.968  0.00  0.00    +0.019 A 
ATOM      9  C   UNL     1     -10.356   0.178   9.967  0.00  0.00    +0.092 A 
ATOM     10  C   UNL     1     -12.055   1.218  11.351  0.00  0.00    +0.046 A 
ATOM     11  C   UNL     1     -11.685   0.311  10.362  0.00  0.00    +0.120 A 
ENDROOT
BRANCH   1  12
ATOM     12  C   UNL     1      -6.187   3.264  12.256  0.00  0.00    -0.011 A 
ATOM     13  C   UNL     1      -5.511   2.831  13.404  0.00  0.00    +0.012 A 
ATOM     14  C   UNL     1      -5.768   4.438  11.623  0.00  0.00    +0.012 A 
ATOM     15  C   UNL     1      -4.426   3.557  13.908  0.00  0.00    +0.046 A 
ATOM     16  C   UNL     1      -4.685   5.161  12.130  0.00  0.00    +0.046 A 
ATOM     17  C   UNL     1      -4.007   4.726  13.272  0.00  0.00    +0.120 A 
BRANCH  17  18
ATOM     18  O   UNL     1      -2.965   5.523  13.661  0.00  0.00    -0.495 OA
ATOM     19  C   UNL     1      -1.793   4.864  14.123  0.00  0.00    +0.277 C 
ENDBRANCH  17  18
ENDBRANCH   1  12
BRANCH  11  20
ATOM     20  O   UNL     1     -12.673  -0.442   9.798  0.00  0.00    -0.507 OA
ATOM     21  H   UNL     1     -12.723  -1.297  10.256  0.00  0.00    +0.292 HD
ENDBRANCH  11  20
TORSDOF 3
ENDMDL
MODEL 7
REMARK VINA RESULT:    -6.458      1.865      2.394
REMARK INTER + INTRA:          -7.723
REMARK INTER:                  -7.419
REMARK INTRA:                  -0.304
REMARK UNBOUND:                -0.321
REMARK  Name = 
REMARK  4 active torsions:
REMARK  status: ('A' for Active; 'I' for Inactive)
REMARK    1  A    between atoms: C_1  and  C_2
REMARK    2  A    between atoms: C_14  and  O_17
REMARK    3  A    between atoms: O_17  and  C_19
REMARK    4  A    between atoms: C_18  and  O_20
REMARK                            x       y       z     vdW  Elec       q    Type
REMARK                         _______ _______ _______ _____ _____    ______ ____
ROOT
ATOM      1  C   UNL     1      -8.033   2.120  12.167  0.00  0.00    +0.064 A 
ATOM      2  C   UNL     1      -8.557   0.730  12.122  0.00  0.00    +0.200 A 
ATOM      3  C   UNL     1      -8.908   3.111  12.393  0.00  0.00    +0.208 A 
ATOM      4  C   UNL     1     -10.004   0.570  12.353  0.00  0.00    +0.065 A 
ATOM      5  O   UNL     1      -7.840  -0.240  11.906  0.00  0.00    -0.286 OA
ATOM      6  O   UNL     1     -10.261   2.975  12.585  0.00  0.00    -0.462 OA
ATOM      7  C   UNL     1     -10.784   1.706  12.569  0.00  0.00    +0.142 A 
ATOM      8  C   UNL     1     -10.586  -0.701  12.357  0.00  0.00    +0.019 A 
ATOM      9  C   UNL     1     -12.159   1.580  12.782  0.00  0.00    +0.092 A 
ATOM     10  C   UNL     1     -11.959  -0.828  12.571  0.00  0.00    +0.046 A 
ATOM     11  C   UNL     1     -12.733   0.311  12.776  0.00  0.00    +0.120 A 
ENDROOT
BRANCH   1  12
ATOM     12  C   UNL     1      -6.605   2.402  11.990  0.00  0.00    -0.011 A 
ATOM     13  C   UNL     1      -6.056   2.479  10.704  0.00  0.00    +0.012 A 
ATOM     14  C   UNL     1      -5.777   2.611  13.097  0.00  0.00    +0.012 A 
ATOM     15  C   UNL     1      -4.699   2.769  10.525  0.00  0.00    +0.046 A 
ATOM     16  C   UNL     1      -4.421   2.898  12.914  0.00  0.00    +0.046 A 
ATOM     17  C   UNL     1      -3.875   2.980  11.631  0.00  0.00    +0.120 A 
BRANCH  17  18
ATOM     18  O   UNL     1      -2.538   3.271  11.593  0.00  0.00    -0.495 OA
ATOM     19  C   UNL     1      -2.115   4.213  10.616  0.00  0.00    +0.277 C 
ENDBRANCH  17  18
ENDBRANCH   1  12
BRANCH  11  20
ATOM     20  O   UNL     1     -14.072   0.136  12.968  0.00  0.00    -0.507 OA
ATOM     21  H   UNL     1     -14.512   1.002  12.952  0.00  0.00    +0.292 HD
ENDBRANCH  11  20
TORSDOF 3
ENDMDL
MODEL 8
REMARK VINA RESULT:    -6.411     11.448     13.763
REMARK INTER + INTRA:          -7.669
REMARK INTER:                  -7.336
REMARK INTRA:                  -0.333
REMARK UNBOUND:                -0.321
REMARK  Name = 
REMARK  4 active torsions:
REMARK  status: ('A' for Active; 'I' for Inactive)
REMARK    1  A    between atoms: C_1  and  C_2
REMARK    2  A    between atoms: C_14  and  O_17
REMARK    3  A    between atoms: O_17  and  C_19
REMARK    4  A    between atoms: C_18  and  O_20
REMARK                            x       y       z     vdW  Elec       q    Type
REMARK                         _______ _______ _______ _____ _____    ______ ____
ROOT
ATOM      1  C   UNL     1       2.654  -5.867   9.661  0.00  0.00    +0.064 A 
ATOM      2  C   UNL     1       1.986  -6.953  10.425  0.00  0.00    +0.200 A 
ATOM      3  C   UNL     1       2.082  -4.654   9.667  0.00  0.00    +0.208 A 
ATOM      4  C   UNL     1       0.754  -6.582  11.143  0.00  0.00    +0.065 A 
ATOM      5  O   UNL     1       2.422  -8.097  10.467  0.00  0.00    -0.286 OA
ATOM      6  O   UNL     1       0.921  -4.304  10.313  0.00  0.00    -0.462 OA
ATOM      7  C   UNL     1       0.281  -5.273  11.046  0.00  0.00    +0.142 A 
ATOM      8  C   UNL     1       0.067  -7.527  11.911  0.00  0.00    +0.019 A 
ATOM      9  C   UNL     1      -0.890  -4.900  11.709  0.00  0.00    +0.092 A 
ATOM     10  C   UNL     1      -1.101  -7.156  12.576  0.00  0.00    +0.046 A 
ATOM     11  C   UNL     1      -1.572  -5.851  12.467  0.00  0.00    +0.120 A 
ENDROOT
BRANCH   1  12
ATOM     12  C   UNL     1       3.907  -6.105   8.938  0.00  0.00    -0.011 A 
ATOM     13  C   UNL     1       5.138  -5.923   9.580  0.00  0.00    +0.012 A 
ATOM     14  C   UNL     1       3.892  -6.527   7.605  0.00  0.00    +0.012 A 
ATOM     15  C   UNL     1       6.338  -6.168   8.903  0.00  0.00    +0.046 A 
ATOM     16  C   UNL     1       5.093  -6.769   6.931  0.00  0.00    +0.046 A 
ATOM     17  C   UNL     1       6.321  -6.592   7.575  0.00  0.00    +0.120 A 
BRANCH  17  18
ATOM     18  O   UNL     1       7.418  -6.866   6.804  0.00  0.00    -0.495 OA
ATOM     19  C   UNL     1       7.396  -8.082   6.067  0.00  0.00    +0.277 C 
ENDBRANCH  17  18
ENDBRANCH   1  12
BRANCH  11  20
ATOM     20  O   UNL     1      -2.725  -5.539  13.125  0.00  0.00    -0.507 OA
ATOM     21  H   UNL     1      -2.640  -4.654  13.516  0.00  0.00    +0.292 HD
ENDBRANCH  11  20
TORSDOF 3
ENDMDL
MODEL 9
REMARK VINA RESULT:    -6.371      6.288     11.403
REMARK INTER + INTRA:          -7.623
REMARK INTER:                  -7.432
REMARK INTRA:                  -0.191
REMARK UNBOUND:                -0.321
REMARK  Name = 
REMARK  4 active torsions:
REMARK  status: ('A' for Active; 'I' for Inactive)
REMARK    1  A    between atoms: C_1  and  C_2
REMARK    2  A    between atoms: C_14  and  O_17
REMARK    3  A    between atoms: O_17  and  C_19
REMARK    4  A    between atoms: C_18  and  O_20
REMARK                            x       y       z     vdW  Elec       q    Type
REMARK                         _______ _______ _______ _____ _____    ______ ____
ROOT
ATOM      1  C   UNL     1      -1.243   3.675  14.201  0.00  0.00    +0.064 A 
ATOM      2  C   UNL     1      -0.322   2.678  14.807  0.00  0.00    +0.200 A 
ATOM      3  C   UNL     1      -0.722   4.573  13.352  0.00  0.00    +0.208 A 
ATOM      4  C   UNL     1       1.090   2.761  14.396  0.00  0.00    +0.065 A 
ATOM      5  O   UNL     1      -0.700   1.828  15.605  0.00  0.00    -0.286 OA
ATOM      6  O   UNL     1       0.597   4.674  12.981  0.00  0.00    -0.462 OA
ATOM      7  C   UNL     1       1.479   3.761  13.505  0.00  0.00    +0.142 A 
ATOM      8  C   UNL     1       2.028   1.850  14.891  0.00  0.00    +0.019 A 
ATOM      9  C   UNL     1       2.814   3.865  13.108  0.00  0.00    +0.092 A 
ATOM     10  C   UNL     1       3.362   1.951  14.494  0.00  0.00    +0.046 A 
ATOM     11  C   UNL     1       3.744   2.958  13.612  0.00  0.00    +0.120 A 
ENDROOT
BRANCH   1  12
ATOM     12  C   UNL     1      -2.678   3.669  14.502  0.00  0.00    -0.011 A 
ATOM     13  C   UNL     1      -3.126   3.941  15.801  0.00  0.00    +0.012 A 
ATOM     14  C   UNL     1      -3.617   3.406  13.500  0.00  0.00    +0.012 A 
ATOM     15  C   UNL     1      -4.495   3.959  16.092  0.00  0.00    +0.046 A 
ATOM     16  C   UNL     1      -4.983   3.423  13.795  0.00  0.00    +0.046 A 
ATOM     17  C   UNL     1      -5.430   3.700  15.090  0.00  0.00    +0.120 A 
BRANCH  17  18
ATOM     18  O   UNL     1      -6.789   3.687  15.242  0.00  0.00    -0.495 OA
ATOM     19  C   UNL     1      -7.543   4.491  14.343  0.00  0.00    +0.277 C 
ENDBRANCH  17  18
ENDBRANCH   1  12
BRANCH  11  20
ATOM     20  O   UNL     1       5.061   3.023  13.263  0.00  0.00    -0.507 OA
ATOM     21  H   UNL     1       5.247   2.346  12.593  0.00  0.00    +0.292 HD
ENDBRANCH  11  20
TORSDOF 3
ENDMDL
