REMARK  Name = 
REMARK  4 active torsions:
REMARK  status: ('A' for Active; 'I' for Inactive)
REMARK    1  A    between atoms: C_1  and  C_2
REMARK    2  A    between atoms: C_14  and  O_17
REMARK    3  A    between atoms: O_17  and  C_19
REMARK    4  A    between atoms: C_18  and  O_20
REMARK                            x       y       z     vdW  Elec       q    Type
REMARK                         _______ _______ _______ _____ _____    ______ ____
ROOT
ATOM      1  C   UNL     1      -2.686  -0.479  -0.040  0.00  0.00    +0.064 A 
ATOM      2  C   UNL     1      -1.832   0.737  -0.028  0.00  0.00    +0.200 A 
ATOM      3  C   UNL     1      -2.075  -1.673  -0.055  0.00  0.00    +0.208 A 
ATOM      4  C   UNL     1      -0.376   0.511  -0.012  0.00  0.00    +0.065 A 
ATOM      5  O   UNL     1      -2.296   1.871  -0.030  0.00  0.00    -0.286 OA
ATOM      6  O   UNL     1      -0.719  -1.894  -0.065  0.00  0.00    -0.462 OA
ATOM      7  C   UNL     1       0.107  -0.797  -0.036  0.00  0.00    +0.142 A 
ATOM      8  C   UNL     1       0.510   1.592   0.027  0.00  0.00    +0.019 A 
ATOM      9  C   UNL     1       1.483  -1.036  -0.031  0.00  0.00    +0.092 A 
ATOM     10  C   UNL     1       1.885   1.355   0.034  0.00  0.00    +0.046 A 
ATOM     11  C   UNL     1       2.359   0.047   0.000  0.00  0.00    +0.120 A 
ENDROOT
BRANCH   1  12
ATOM     12  C   UNL     1      -4.149  -0.383  -0.018  0.00  0.00    -0.011 A 
ATOM     13  C   UNL     1      -4.835  -0.348   1.202  0.00  0.00    +0.012 A 
ATOM     14  C   UNL     1      -4.877  -0.312  -1.210  0.00  0.00    +0.012 A 
ATOM     15  C   UNL     1      -6.230  -0.235   1.232  0.00  0.00    +0.046 A 
ATOM     16  C   UNL     1      -6.270  -0.201  -1.176  0.00  0.00    +0.046 A 
ATOM     17  C   UNL     1      -6.954  -0.161   0.042  0.00  0.00    +0.120 A 
BRANCH  17  18
ATOM     18  O   UNL     1      -8.313  -0.048  -0.066  0.00  0.00    -0.495 OA
ATOM     19  C   UNL     1      -9.049   0.021   1.149  0.00  0.00    +0.277 C 
ENDBRANCH  17  18
ENDBRANCH   1  12
BRANCH  11  20
ATOM     20  O   UNL     1       3.711  -0.133  -0.004  0.00  0.00    -0.507 OA
ATOM     21  H   UNL     1       3.906  -1.082  -0.072  0.00  0.00    +0.292 HD
ENDBRANCH  11  20
TORSDOF 3
