MODEL 1
REMARK VINA RESULT:    -6.727      0.000      0.000
REMARK INTER + INTRA:         -11.377
REMARK INTER:                 -10.070
REMARK INTRA:                  -1.307
REMARK UNBOUND:                -1.307
REMARK  Name = 
REMARK  11 active torsions:
REMARK  status: ('A' for Active; 'I' for Inactive)
REMARK    1  A    between atoms: C_1  and  N_2
REMARK    2  A    between atoms: C_4  and  O_9
REMARK    3  A    between atoms: C_7  and  C_13
REMARK    4  A    between atoms: C_8  and  O_14
REMARK    5  A    between atoms: C_13  and  O_16
REMARK    6  A    between atoms: O_16  and  P_18
REMARK    7  A    between atoms: P_18  and  O_19
REMARK    8  A    between atoms: P_18  and  O_20
REMARK    9  A    between atoms: O_19  and  P_22
REMARK   10  A    between atoms: P_22  and  O_23
REMARK   11  A    between atoms: P_22  and  O_24
REMARK                            x       y       z     vdW  Elec       q    Type
REMARK                         _______ _______ _______ _____ _____    ______ ____
ROOT
ATOM      1  C   UNL     1     -24.024   2.767   5.986  0.00  0.00    +0.255 C 
ATOM      2  O   UNL     1     -25.217   2.114   6.466  0.00  0.00    -0.346 OA
ATOM      3  C   UNL     1     -22.845   1.860   6.367  0.00  0.00    +0.195 C 
ATOM      4  C   UNL     1     -24.898   0.751   6.839  0.00  0.00    +0.178 C 
ATOM      5  C   UNL     1     -23.491   0.483   6.311  0.00  0.00    +0.178 C 
ENDROOT
BRANCH   1   6
ATOM      6  N   UNL     1     -23.973   4.117   6.537  0.00  0.00    -0.271 N 
ATOM      7  C   UNL     1     -23.255   5.076   5.831  0.00  0.00    +0.331 A 
ATOM      8  C   UNL     1     -24.646   4.436   7.702  0.00  0.00    +0.098 A 
ATOM      9  N   UNL     1     -23.274   6.340   6.362  0.00  0.00    -0.275 N 
ATOM     10  O   UNL     1     -22.638   4.857   4.791  0.00  0.00    -0.246 OA
ATOM     11  C   UNL     1     -24.654   5.675   8.210  0.00  0.00    +0.088 A 
ATOM     12  C   UNL     1     -23.938   6.733   7.484  0.00  0.00    +0.254 A 
ATOM     13  O   UNL     1     -23.952   7.889   7.888  0.00  0.00    -0.268 OA
ATOM     14  H   UNL     1     -22.783   7.053   5.848  0.00  0.00    +0.173 HD
ENDBRANCH   1   6
BRANCH   3  15
ATOM     15  O   UNL     1     -21.728   1.965   5.492  0.00  0.00    -0.385 OA
ATOM     16  H   UNL     1     -22.063   2.324   4.645  0.00  0.00    +0.210 HD
ENDBRANCH   3  15
BRANCH   5  17
ATOM     17  O   UNL     1     -23.507   0.032   4.945  0.00  0.00    -0.386 OA
ATOM     18  H   UNL     1     -22.915  -0.735   4.843  0.00  0.00    +0.210 HD
ENDBRANCH   5  17
BRANCH   4  19
ATOM     19  C   UNL     1     -25.006   0.615   8.366  0.00  0.00    +0.206 C 
BRANCH  19  20
ATOM     20  O   UNL     1     -23.867  -0.096   8.824  0.00  0.00    -0.284 OA
BRANCH  20  21
ATOM     21  P   UNL     1     -24.034  -1.487   9.592  0.00  0.00    +0.483 P 
ATOM     22  O   UNL     1     -24.299  -2.663   8.720  0.00  0.00    -0.227 OA
BRANCH  21  23
ATOM     23  O   UNL     1     -25.221  -1.194  10.626  0.00  0.00    -0.302 OA
ATOM     24  H   UNL     1     -24.898  -0.840  11.475  0.00  0.00    +0.222 HD
ENDBRANCH  21  23
BRANCH  21  25
ATOM     25  O   UNL     1     -22.725  -1.582  10.506  0.00  0.00    -0.186 OA
BRANCH  25  26
ATOM     26  P   UNL     1     -21.471  -2.580   9.855  0.00  0.00    +0.481 P 
ATOM     27  O   UNL     1     -20.349  -3.474   9.272  0.00  0.00    -0.227 OA
BRANCH  26  28
ATOM     28  O   UNL     1     -21.762  -1.748   8.471  0.00  0.00    -0.302 OA
ATOM     29  H   UNL     1     -20.970  -1.328   8.102  0.00  0.00    +0.222 HD
ENDBRANCH  26  28
BRANCH  26  30
ATOM     30  O   UNL     1     -20.472  -1.450  10.503  0.00  0.00    -0.302 OA
ATOM     31  H   UNL     1     -19.531  -1.628  10.344  0.00  0.00    +0.222 HD
ENDBRANCH  26  30
ENDBRANCH  25  26
ENDBRANCH  21  25
ENDBRANCH  20  21
ENDBRANCH  19  20
ENDBRANCH   4  19
TORSDOF 11
ENDMDL
MODEL 2
REMARK VINA RESULT:    -6.666      2.714      4.622
REMARK INTER + INTRA:         -11.286
REMARK INTER:                 -10.216
REMARK INTRA:                  -1.070
REMARK UNBOUND:                -1.307
REMARK  Name = 
REMARK  11 active torsions:
REMARK  status: ('A' for Active; 'I' for Inactive)
REMARK    1  A    between atoms: C_1  and  N_2
REMARK    2  A    between atoms: C_4  and  O_9
REMARK    3  A    between atoms: C_7  and  C_13
REMARK    4  A    between atoms: C_8  and  O_14
REMARK    5  A    between atoms: C_13  and  O_16
REMARK    6  A    between atoms: O_16  and  P_18
REMARK    7  A    between atoms: P_18  and  O_19
REMARK    8  A    between atoms: P_18  and  O_20
REMARK    9  A    between atoms: O_19  and  P_22
REMARK   10  A    between atoms: P_22  and  O_23
REMARK   11  A    between atoms: P_22  and  O_24
REMARK                            x       y       z     vdW  Elec       q    Type
REMARK                         _______ _______ _______ _____ _____    ______ ____
ROOT
ATOM      1  C   UNL     1     -22.824   1.714   5.066  0.00  0.00    +0.255 C 
ATOM      2  O   UNL     1     -22.441   1.263   6.382  0.00  0.00    -0.346 OA
ATOM      3  C   UNL     1     -24.359   1.685   5.022  0.00  0.00    +0.195 C 
ATOM      4  C   UNL     1     -23.608   1.248   7.239  0.00  0.00    +0.178 C 
ATOM      5  C   UNL     1     -24.708   1.979   6.474  0.00  0.00    +0.178 C 
ENDROOT
BRANCH   1   6
ATOM      6  N   UNL     1     -22.158   0.880   4.070  0.00  0.00    -0.271 N 
ATOM      7  C   UNL     1     -21.878   1.451   2.834  0.00  0.00    +0.331 A 
ATOM      8  C   UNL     1     -21.789  -0.420   4.363  0.00  0.00    +0.098 A 
ATOM      9  N   UNL     1     -21.210   0.645   1.947  0.00  0.00    -0.275 N 
ATOM     10  O   UNL     1     -22.178   2.598   2.512  0.00  0.00    -0.246 OA
ATOM     11  C   UNL     1     -21.139  -1.195   3.487  0.00  0.00    +0.088 A 
ATOM     12  C   UNL     1     -20.789  -0.630   2.176  0.00  0.00    +0.254 A 
ATOM     13  O   UNL     1     -20.158  -1.288   1.359  0.00  0.00    -0.268 OA
ATOM     14  H   UNL     1     -20.974   1.052   1.057  0.00  0.00    +0.173 HD
ENDBRANCH   1   6
BRANCH   3  15
ATOM     15  O   UNL     1     -24.931   2.634   4.129  0.00  0.00    -0.385 OA
ATOM     16  H   UNL     1     -24.296   2.749   3.393  0.00  0.00    +0.210 HD
ENDBRANCH   3  15
BRANCH   5  17
ATOM     17  O   UNL     1     -24.657   3.400   6.687  0.00  0.00    -0.386 OA
ATOM     18  H   UNL     1     -23.889   3.778   6.220  0.00  0.00    +0.210 HD
ENDBRANCH   5  17
BRANCH   4  19
ATOM     19  C   UNL     1     -23.967  -0.210   7.565  0.00  0.00    +0.206 C 
BRANCH  19  20
ATOM     20  O   UNL     1     -23.737  -0.418   8.949  0.00  0.00    -0.284 OA
BRANCH  20  21
ATOM     21  P   UNL     1     -24.113  -1.813   9.633  0.00  0.00    +0.483 P 
ATOM     22  O   UNL     1     -24.616  -2.859   8.700  0.00  0.00    -0.227 OA
BRANCH  21  23
ATOM     23  O   UNL     1     -25.185  -1.398  10.746  0.00  0.00    -0.302 OA
ATOM     24  H   UNL     1     -24.858  -1.547  11.653  0.00  0.00    +0.222 HD
ENDBRANCH  21  23
BRANCH  21  25
ATOM     25  O   UNL     1     -22.803  -2.200  10.465  0.00  0.00    -0.186 OA
BRANCH  25  26
ATOM     26  P   UNL     1     -21.330  -2.104   9.564  0.00  0.00    +0.481 P 
ATOM     27  O   UNL     1     -20.011  -2.018   8.757  0.00  0.00    -0.227 OA
BRANCH  26  28
ATOM     28  O   UNL     1     -21.019  -0.819  10.535  0.00  0.00    -0.302 OA
ATOM     29  H   UNL     1     -20.116  -0.478  10.445  0.00  0.00    +0.222 HD
ENDBRANCH  26  28
BRANCH  26  30
ATOM     30  O   UNL     1     -20.803  -3.232  10.634  0.00  0.00    -0.302 OA
ATOM     31  H   UNL     1     -21.085  -4.135  10.416  0.00  0.00    +0.222 HD
ENDBRANCH  26  30
ENDBRANCH  25  26
ENDBRANCH  21  25
ENDBRANCH  20  21
ENDBRANCH  19  20
ENDBRANCH   4  19
TORSDOF 11
ENDMDL
MODEL 3
REMARK VINA RESULT:    -6.519     23.970     25.810
REMARK INTER + INTRA:         -11.066
REMARK INTER:                  -9.483
REMARK INTRA:                  -1.583
REMARK UNBOUND:                -1.307
REMARK  Name = 
REMARK  11 active torsions:
REMARK  status: ('A' for Active; 'I' for Inactive)
REMARK    1  A    between atoms: C_1  and  N_2
REMARK    2  A    between atoms: C_4  and  O_9
REMARK    3  A    between atoms: C_7  and  C_13
REMARK    4  A    between atoms: C_8  and  O_14
REMARK    5  A    between atoms: C_13  and  O_16
REMARK    6  A    between atoms: O_16  and  P_18
REMARK    7  A    between atoms: P_18  and  O_19
REMARK    8  A    between atoms: P_18  and  O_20
REMARK    9  A    between atoms: O_19  and  P_22
REMARK   10  A    between atoms: P_22  and  O_23
REMARK   11  A    between atoms: P_22  and  O_24
REMARK                            x       y       z     vdW  Elec       q    Type
REMARK                         _______ _______ _______ _____ _____    ______ ____
ROOT
ATOM      1  C   UNL     1      -9.964 -12.890  -7.388  0.00  0.00    +0.255 C 
ATOM      2  O   UNL     1     -11.320 -13.140  -6.960  0.00  0.00    -0.346 OA
ATOM      3  C   UNL     1     -10.036 -12.518  -8.876  0.00  0.00    +0.195 C 
ATOM      4  C   UNL     1     -12.235 -12.663  -7.975  0.00  0.00    +0.178 C 
ATOM      5  C   UNL     1     -11.398 -11.843  -8.953  0.00  0.00    +0.178 C 
ENDROOT
BRANCH   1   6
ATOM      6  N   UNL     1      -9.150 -14.061  -7.078  0.00  0.00    -0.271 N 
ATOM      7  C   UNL     1      -8.264 -13.967  -6.010  0.00  0.00    +0.331 A 
ATOM      8  C   UNL     1      -9.285 -15.232  -7.800  0.00  0.00    +0.098 A 
ATOM      9  N   UNL     1      -7.555 -15.106  -5.727  0.00  0.00    -0.275 N 
ATOM     10  O   UNL     1      -8.100 -12.957  -5.329  0.00  0.00    -0.246 OA
ATOM     11  C   UNL     1      -8.584 -16.336  -7.514  0.00  0.00    +0.088 A 
ATOM     12  C   UNL     1      -7.656 -16.300  -6.374  0.00  0.00    +0.254 A 
ATOM     13  O   UNL     1      -7.025 -17.298  -6.049  0.00  0.00    -0.268 OA
ATOM     14  H   UNL     1      -6.929 -15.064  -4.940  0.00  0.00    +0.173 HD
ENDBRANCH   1   6
BRANCH   3  15
ATOM     15  O   UNL     1      -8.986 -11.661  -9.309  0.00  0.00    -0.385 OA
ATOM     16  H   UNL     1      -8.149 -12.154  -9.190  0.00  0.00    +0.210 HD
ENDBRANCH   3  15
BRANCH   5  17
ATOM     17  O   UNL     1     -11.265 -10.475  -8.531  0.00  0.00    -0.386 OA
ATOM     18  H   UNL     1     -10.532 -10.050  -9.013  0.00  0.00    +0.210 HD
ENDBRANCH   5  17
BRANCH   4  19
ATOM     19  C   UNL     1     -12.922 -13.870  -8.632  0.00  0.00    +0.206 C 
BRANCH  19  20
ATOM     20  O   UNL     1     -14.123 -14.130  -7.925  0.00  0.00    -0.284 OA
BRANCH  20  21
ATOM     21  P   UNL     1     -14.223 -15.372  -6.924  0.00  0.00    +0.483 P 
ATOM     22  O   UNL     1     -15.595 -15.916  -6.728  0.00  0.00    -0.227 OA
BRANCH  21  23
ATOM     23  O   UNL     1     -13.574 -14.808  -5.575  0.00  0.00    -0.302 OA
ATOM     24  H   UNL     1     -13.881 -15.288  -4.784  0.00  0.00    +0.222 HD
ENDBRANCH  21  23
BRANCH  21  25
ATOM     25  O   UNL     1     -13.141 -16.407  -7.485  0.00  0.00    -0.186 OA
BRANCH  25  26
ATOM     26  P   UNL     1     -13.509 -18.067  -7.168  0.00  0.00    +0.481 P 
ATOM     27  O   UNL     1     -13.839 -19.554  -6.884  0.00  0.00    -0.227 OA
BRANCH  26  28
ATOM     28  O   UNL     1     -11.879 -18.238  -7.095  0.00  0.00    -0.302 OA
ATOM     29  H   UNL     1     -11.592 -18.924  -6.474  0.00  0.00    +0.222 HD
ENDBRANCH  26  28
BRANCH  26  30
ATOM     30  O   UNL     1     -13.677 -17.555  -5.617  0.00  0.00    -0.302 OA
ATOM     31  H   UNL     1     -14.272 -18.110  -5.088  0.00  0.00    +0.222 HD
ENDBRANCH  26  30
ENDBRANCH  25  26
ENDBRANCH  21  25
ENDBRANCH  20  21
ENDBRANCH  19  20
ENDBRANCH   4  19
TORSDOF 11
ENDMDL
MODEL 4
REMARK VINA RESULT:    -6.517     24.391     26.552
REMARK INTER + INTRA:         -11.062
REMARK INTER:                  -9.750
REMARK INTRA:                  -1.312
REMARK UNBOUND:                -1.307
REMARK  Name = 
REMARK  11 active torsions:
REMARK  status: ('A' for Active; 'I' for Inactive)
REMARK    1  A    between atoms: C_1  and  N_2
REMARK    2  A    between atoms: C_4  and  O_9
REMARK    3  A    between atoms: C_7  and  C_13
REMARK    4  A    between atoms: C_8  and  O_14
REMARK    5  A    between atoms: C_13  and  O_16
REMARK    6  A    between atoms: O_16  and  P_18
REMARK    7  A    between atoms: P_18  and  O_19
REMARK    8  A    between atoms: P_18  and  O_20
REMARK    9  A    between atoms: O_19  and  P_22
REMARK   10  A    between atoms: P_22  and  O_23
REMARK   11  A    between atoms: P_22  and  O_24
REMARK                            x       y       z     vdW  Elec       q    Type
REMARK                         _______ _______ _______ _____ _____    ______ ____
ROOT
ATOM      1  C   UNL     1     -10.657 -11.619  -8.840  0.00  0.00    +0.255 C 
ATOM      2  O   UNL     1      -9.258 -11.734  -8.506  0.00  0.00    -0.346 OA
ATOM      3  C   UNL     1     -11.365 -12.811  -8.181  0.00  0.00    +0.195 C 
ATOM      4  C   UNL     1      -9.098 -12.721  -7.458  0.00  0.00    +0.178 C 
ATOM      5  C   UNL     1     -10.502 -13.030  -6.945  0.00  0.00    +0.178 C 
ENDROOT
BRANCH   1   6
ATOM      6  N   UNL     1     -10.789 -11.542 -10.291  0.00  0.00    -0.271 N 
ATOM      7  C   UNL     1     -11.957 -10.987 -10.804  0.00  0.00    +0.331 A 
ATOM      8  C   UNL     1      -9.772 -11.974 -11.122  0.00  0.00    +0.098 A 
ATOM      9  N   UNL     1     -12.016 -10.893 -12.171  0.00  0.00    -0.275 N 
ATOM     10  O   UNL     1     -12.895 -10.583 -10.120  0.00  0.00    -0.246 OA
ATOM     11  C   UNL     1      -9.846 -11.877 -12.455  0.00  0.00    +0.088 A 
ATOM     12  C   UNL     1     -11.045 -11.268 -13.048  0.00  0.00    +0.254 A 
ATOM     13  O   UNL     1     -11.138 -11.121 -14.260  0.00  0.00    -0.268 OA
ATOM     14  H   UNL     1     -12.842 -10.467 -12.558  0.00  0.00    +0.173 HD
ENDBRANCH   1   6
BRANCH   3  15
ATOM     15  O   UNL     1     -12.727 -12.565  -7.848  0.00  0.00    -0.385 OA
ATOM     16  H   UNL     1     -13.008 -13.288  -7.251  0.00  0.00    +0.210 HD
ENDBRANCH   3  15
BRANCH   5  17
ATOM     17  O   UNL     1     -10.915 -12.110  -5.920  0.00  0.00    -0.386 OA
ATOM     18  H   UNL     1     -10.151 -11.586  -5.618  0.00  0.00    +0.210 HD
ENDBRANCH   5  17
BRANCH   4  19
ATOM     19  C   UNL     1      -8.383 -13.950  -8.037  0.00  0.00    +0.206 C 
BRANCH  19  20
ATOM     20  O   UNL     1      -8.894 -15.102  -7.387  0.00  0.00    -0.284 OA
BRANCH  20  21
ATOM     21  P   UNL     1      -8.044 -16.455  -7.346  0.00  0.00    +0.483 P 
ATOM     22  O   UNL     1      -7.893 -17.066  -5.997  0.00  0.00    -0.227 OA
BRANCH  21  23
ATOM     23  O   UNL     1      -6.646 -16.029  -8.000  0.00  0.00    -0.302 OA
ATOM     24  H   UNL     1      -6.444 -16.534  -8.809  0.00  0.00    +0.222 HD
ENDBRANCH  21  23
BRANCH  21  25
ATOM     25  O   UNL     1      -8.737 -17.379  -8.451  0.00  0.00    -0.186 OA
BRANCH  25  26
ATOM     26  P   UNL     1     -10.453 -17.194  -8.564  0.00  0.00    +0.481 P 
ATOM     27  O   UNL     1     -11.989 -17.027  -8.665  0.00  0.00    -0.227 OA
BRANCH  26  28
ATOM     28  O   UNL     1     -10.358 -18.502  -9.549  0.00  0.00    -0.302 OA
ATOM     29  H   UNL     1     -10.225 -19.334  -9.071  0.00  0.00    +0.222 HD
ENDBRANCH  26  28
BRANCH  26  30
ATOM     30  O   UNL     1     -10.465 -18.057  -7.168  0.00  0.00    -0.302 OA
ATOM     31  H   UNL     1     -10.640 -17.518  -6.380  0.00  0.00    +0.222 HD
ENDBRANCH  26  30
ENDBRANCH  25  26
ENDBRANCH  21  25
ENDBRANCH  20  21
ENDBRANCH  19  20
ENDBRANCH   4  19
TORSDOF 11
ENDMDL
MODEL 5
REMARK VINA RESULT:    -6.499     41.768     43.345
REMARK INTER + INTRA:         -11.035
REMARK INTER:                 -10.014
REMARK INTRA:                  -1.021
REMARK UNBOUND:                -1.307
REMARK  Name = 
REMARK  11 active torsions:
REMARK  status: ('A' for Active; 'I' for Inactive)
REMARK    1  A    between atoms: C_1  and  N_2
REMARK    2  A    between atoms: C_4  and  O_9
REMARK    3  A    between atoms: C_7  and  C_13
REMARK    4  A    between atoms: C_8  and  O_14
REMARK    5  A    between atoms: C_13  and  O_16
REMARK    6  A    between atoms: O_16  and  P_18
REMARK    7  A    between atoms: P_18  and  O_19
REMARK    8  A    between atoms: P_18  and  O_20
REMARK    9  A    between atoms: O_19  and  P_22
REMARK   10  A    between atoms: P_22  and  O_23
REMARK   11  A    between atoms: P_22  and  O_24
REMARK                            x       y       z     vdW  Elec       q    Type
REMARK                         _______ _______ _______ _____ _____    ______ ____
ROOT
ATOM      1  C   UNL     1      -3.110  -1.931 -29.881  0.00  0.00    +0.255 C 
ATOM      2  O   UNL     1      -2.654  -2.430 -28.607  0.00  0.00    -0.346 OA
ATOM      3  C   UNL     1      -3.113  -3.127 -30.844  0.00  0.00    +0.195 C 
ATOM      4  C   UNL     1      -2.666  -3.877 -28.629  0.00  0.00    +0.178 C 
ATOM      5  C   UNL     1      -3.418  -4.278 -29.896  0.00  0.00    +0.178 C 
ENDROOT
BRANCH   1   6
ATOM      6  N   UNL     1      -2.260  -0.814 -30.280  0.00  0.00    -0.271 N 
ATOM      7  C   UNL     1      -2.634   0.461 -29.870  0.00  0.00    +0.331 A 
ATOM      8  C   UNL     1      -1.104  -1.025 -31.010  0.00  0.00    +0.098 A 
ATOM      9  N   UNL     1      -1.781   1.473 -30.228  0.00  0.00    -0.275 N 
ATOM     10  O   UNL     1      -3.646   0.714 -29.220  0.00  0.00    -0.246 OA
ATOM     11  C   UNL     1      -0.282  -0.026 -31.354  0.00  0.00    +0.088 A 
ATOM     12  C   UNL     1      -0.614   1.337 -30.918  0.00  0.00    +0.254 A 
ATOM     13  O   UNL     1       0.130   2.275 -31.173  0.00  0.00    -0.268 OA
ATOM     14  H   UNL     1      -2.022   2.398 -29.915  0.00  0.00    +0.173 HD
ENDBRANCH   1   6
BRANCH   3  15
ATOM     15  O   UNL     1      -4.072  -3.025 -31.891  0.00  0.00    -0.385 OA
ATOM     16  H   UNL     1      -4.295  -2.076 -31.980  0.00  0.00    +0.210 HD
ENDBRANCH   3  15
BRANCH   5  17
ATOM     17  O   UNL     1      -4.839  -4.339 -29.680  0.00  0.00    -0.386 OA
ATOM     18  H   UNL     1      -5.303  -4.367 -30.537  0.00  0.00    +0.210 HD
ENDBRANCH   5  17
BRANCH   4  19
ATOM     19  C   UNL     1      -1.217  -4.387 -28.601  0.00  0.00    +0.206 C 
BRANCH  19  20
ATOM     20  O   UNL     1      -0.863  -4.628 -27.250  0.00  0.00    -0.284 OA
BRANCH  20  21
ATOM     21  P   UNL     1      -0.064  -5.951 -26.844  0.00  0.00    +0.483 P 
ATOM     22  O   UNL     1      -0.093  -7.042 -27.856  0.00  0.00    -0.227 OA
BRANCH  21  23
ATOM     23  O   UNL     1      -0.734  -6.371 -25.452  0.00  0.00    -0.302 OA
ATOM     24  H   UNL     1      -0.836  -7.336 -25.362  0.00  0.00    +0.222 HD
ENDBRANCH  21  23
BRANCH  21  25
ATOM     25  O   UNL     1       1.389  -5.417 -26.442  0.00  0.00    -0.186 OA
BRANCH  25  26
ATOM     26  P   UNL     1       2.677  -6.061 -27.400  0.00  0.00    +0.481 P 
ATOM     27  O   UNL     1       3.830  -6.637 -28.258  0.00  0.00    -0.227 OA
BRANCH  26  28
ATOM     28  O   UNL     1       2.198  -4.935 -28.494  0.00  0.00    -0.302 OA
ATOM     29  H   UNL     1       1.236  -4.888 -28.601  0.00  0.00    +0.222 HD
ENDBRANCH  26  28
BRANCH  26  30
ATOM     30  O   UNL     1       3.611  -5.033 -26.525  0.00  0.00    -0.302 OA
ATOM     31  H   UNL     1       3.202  -4.751 -25.692  0.00  0.00    +0.222 HD
ENDBRANCH  26  30
ENDBRANCH  25  26
ENDBRANCH  21  25
ENDBRANCH  20  21
ENDBRANCH  19  20
ENDBRANCH   4  19
TORSDOF 11
ENDMDL
MODEL 6
REMARK VINA RESULT:    -6.410     23.158     25.685
REMARK INTER + INTRA:         -10.902
REMARK INTER:                  -9.772
REMARK INTRA:                  -1.130
REMARK UNBOUND:                -1.307
REMARK  Name = 
REMARK  11 active torsions:
REMARK  status: ('A' for Active; 'I' for Inactive)
REMARK    1  A    between atoms: C_1  and  N_2
REMARK    2  A    between atoms: C_4  and  O_9
REMARK    3  A    between atoms: C_7  and  C_13
REMARK    4  A    between atoms: C_8  and  O_14
REMARK    5  A    between atoms: C_13  and  O_16
REMARK    6  A    between atoms: O_16  and  P_18
REMARK    7  A    between atoms: P_18  and  O_19
REMARK    8  A    between atoms: P_18  and  O_20
REMARK    9  A    between atoms: O_19  and  P_22
REMARK   10  A    between atoms: P_22  and  O_23
REMARK   11  A    between atoms: P_22  and  O_24
REMARK                            x       y       z     vdW  Elec       q    Type
REMARK                         _______ _______ _______ _____ _____    ______ ____
ROOT
ATOM      1  C   UNL     1     -11.657 -12.760  -6.464  0.00  0.00    +0.255 C 
ATOM      2  O   UNL     1     -11.637 -11.960  -7.665  0.00  0.00    -0.346 OA
ATOM      3  C   UNL     1     -10.219 -13.248  -6.238  0.00  0.00    +0.195 C 
ATOM      4  C   UNL     1     -10.264 -11.672  -8.023  0.00  0.00    +0.178 C 
ATOM      5  C   UNL     1      -9.414 -12.098  -6.829  0.00  0.00    +0.178 C 
ENDROOT
BRANCH   1   6
ATOM      6  N   UNL     1     -12.654 -13.814  -6.618  0.00  0.00    -0.271 N 
ATOM      7  C   UNL     1     -13.790 -13.750  -5.818  0.00  0.00    +0.331 A 
ATOM      8  C   UNL     1     -12.488 -14.820  -7.552  0.00  0.00    +0.098 A 
ATOM      9  N   UNL     1     -14.720 -14.736  -6.030  0.00  0.00    -0.275 N 
ATOM     10  O   UNL     1     -13.998 -12.883  -4.972  0.00  0.00    -0.246 OA
ATOM     11  C   UNL     1     -13.403 -15.777  -7.746  0.00  0.00    +0.088 A 
ATOM     12  C   UNL     1     -14.638 -15.737  -6.949  0.00  0.00    +0.254 A 
ATOM     13  O   UNL     1     -15.522 -16.567  -7.123  0.00  0.00    -0.268 OA
ATOM     14  H   UNL     1     -15.561 -14.688  -5.479  0.00  0.00    +0.173 HD
ENDBRANCH   1   6
BRANCH   3  15
ATOM     15  O   UNL     1      -9.895 -13.483  -4.873  0.00  0.00    -0.385 OA
ATOM     16  H   UNL     1      -9.906 -12.613  -4.424  0.00  0.00    +0.210 HD
ENDBRANCH   3  15
BRANCH   5  17
ATOM     17  O   UNL     1      -9.303 -11.054  -5.847  0.00  0.00    -0.386 OA
ATOM     18  H   UNL     1     -10.016 -10.402  -5.976  0.00  0.00    +0.210 HD
ENDBRANCH   5  17
BRANCH   4  19
ATOM     19  C   UNL     1      -9.917 -12.430  -9.313  0.00  0.00    +0.206 C 
BRANCH  19  20
ATOM     20  O   UNL     1      -9.781 -11.479 -10.357  0.00  0.00    -0.284 OA
BRANCH  20  21
ATOM     21  P   UNL     1      -9.713 -11.953 -11.882  0.00  0.00    +0.483 P 
ATOM     22  O   UNL     1      -9.870 -13.418 -12.096  0.00  0.00    -0.227 OA
BRANCH  21  23
ATOM     23  O   UNL     1      -8.297 -11.396 -12.376  0.00  0.00    -0.302 OA
ATOM     24  H   UNL     1      -8.321 -10.442 -12.577  0.00  0.00    +0.222 HD
ENDBRANCH  21  23
BRANCH  21  25
ATOM     25  O   UNL     1     -10.787 -11.027 -12.621  0.00  0.00    -0.186 OA
BRANCH  25  26
ATOM     26  P   UNL     1     -12.430 -11.520 -12.398  0.00  0.00    +0.481 P 
ATOM     27  O   UNL     1     -13.901 -11.961 -12.199  0.00  0.00    -0.227 OA
BRANCH  26  28
ATOM     28  O   UNL     1     -12.411 -10.432 -11.170  0.00  0.00    -0.302 OA
ATOM     29  H   UNL     1     -11.621  -9.870 -11.167  0.00  0.00    +0.222 HD
ENDBRANCH  26  28
BRANCH  26  30
ATOM     30  O   UNL     1     -12.740 -10.415 -13.572  0.00  0.00    -0.302 OA
ATOM     31  H   UNL     1     -12.872 -10.808 -14.450  0.00  0.00    +0.222 HD
ENDBRANCH  26  30
ENDBRANCH  25  26
ENDBRANCH  21  25
ENDBRANCH  20  21
ENDBRANCH  19  20
ENDBRANCH   4  19
TORSDOF 11
ENDMDL
MODEL 7
REMARK VINA RESULT:    -6.362     23.356     25.422
REMARK INTER + INTRA:         -10.830
REMARK INTER:                  -9.547
REMARK INTRA:                  -1.283
REMARK UNBOUND:                -1.307
REMARK  Name = 
REMARK  11 active torsions:
REMARK  status: ('A' for Active; 'I' for Inactive)
REMARK    1  A    between atoms: C_1  and  N_2
REMARK    2  A    between atoms: C_4  and  O_9
REMARK    3  A    between atoms: C_7  and  C_13
REMARK    4  A    between atoms: C_8  and  O_14
REMARK    5  A    between atoms: C_13  and  O_16
REMARK    6  A    between atoms: O_16  and  P_18
REMARK    7  A    between atoms: P_18  and  O_19
REMARK    8  A    between atoms: P_18  and  O_20
REMARK    9  A    between atoms: O_19  and  P_22
REMARK   10  A    between atoms: P_22  and  O_23
REMARK   11  A    between atoms: P_22  and  O_24
REMARK                            x       y       z     vdW  Elec       q    Type
REMARK                         _______ _______ _______ _____ _____    ______ ____
ROOT
ATOM      1  C   UNL     1     -12.195 -12.428 -12.330  0.00  0.00    +0.255 C 
ATOM      2  O   UNL     1     -11.353 -13.017 -11.317  0.00  0.00    -0.346 OA
ATOM      3  C   UNL     1     -11.441 -11.204 -12.869  0.00  0.00    +0.195 C 
ATOM      4  C   UNL     1     -10.028 -12.437 -11.403  0.00  0.00    +0.178 C 
ATOM      5  C   UNL     1      -9.993 -11.645 -12.707  0.00  0.00    +0.178 C 
ENDROOT
BRANCH   1   6
ATOM      6  N   UNL     1     -13.503 -12.145 -11.747  0.00  0.00    -0.271 N 
ATOM      7  C   UNL     1     -14.600 -12.133 -12.601  0.00  0.00    +0.331 A 
ATOM      8  C   UNL     1     -13.646 -11.933 -10.388  0.00  0.00    +0.098 A 
ATOM      9  N   UNL     1     -15.814 -11.909 -12.002  0.00  0.00    -0.275 N 
ATOM     10  O   UNL     1     -14.541 -12.315 -13.815  0.00  0.00    -0.246 OA
ATOM     11  C   UNL     1     -14.836 -11.714  -9.818  0.00  0.00    +0.088 A 
ATOM     12  C   UNL     1     -16.034 -11.723 -10.671  0.00  0.00    +0.254 A 
ATOM     13  O   UNL     1     -17.148 -11.569 -10.187  0.00  0.00    -0.268 OA
ATOM     14  H   UNL     1     -16.622 -11.925 -12.601  0.00  0.00    +0.173 HD
ENDBRANCH   1   6
BRANCH   3  15
ATOM     15  O   UNL     1     -11.755 -10.879 -14.219  0.00  0.00    -0.385 OA
ATOM     16  H   UNL     1     -11.669 -11.706 -14.737  0.00  0.00    +0.210 HD
ENDBRANCH   3  15
BRANCH   5  17
ATOM     17  O   UNL     1      -9.629 -12.469 -13.827  0.00  0.00    -0.386 OA
ATOM     18  H   UNL     1      -9.185 -13.278 -13.513  0.00  0.00    +0.210 HD
ENDBRANCH   5  17
BRANCH   4  19
ATOM     19  C   UNL     1      -9.785 -11.567 -10.161  0.00  0.00    +0.206 C 
BRANCH  19  20
ATOM     20  O   UNL     1      -9.764 -12.418  -9.026  0.00  0.00    -0.284 OA
BRANCH  20  21
ATOM     21  P   UNL     1     -10.157 -11.856  -7.583  0.00  0.00    +0.483 P 
ATOM     22  O   UNL     1     -10.781 -12.849  -6.666  0.00  0.00    -0.227 OA
BRANCH  21  23
ATOM     23  O   UNL     1     -11.121 -10.623  -7.920  0.00  0.00    -0.302 OA
ATOM     24  H   UNL     1     -12.002 -10.717  -7.515  0.00  0.00    +0.222 HD
ENDBRANCH  21  23
BRANCH  21  25
ATOM     25  O   UNL     1      -8.810 -11.176  -7.054  0.00  0.00    -0.186 OA
BRANCH  25  26
ATOM     26  P   UNL     1      -8.641 -11.171  -5.332  0.00  0.00    +0.481 P 
ATOM     27  O   UNL     1      -8.490 -11.166  -3.791  0.00  0.00    -0.227 OA
BRANCH  26  28
ATOM     28  O   UNL     1      -7.369 -10.178  -5.631  0.00  0.00    -0.302 OA
ATOM     29  H   UNL     1      -6.532 -10.652  -5.752  0.00  0.00    +0.222 HD
ENDBRANCH  26  28
BRANCH  26  30
ATOM     30  O   UNL     1      -9.775  -9.986  -5.397  0.00  0.00    -0.302 OA
ATOM     31  H   UNL     1      -9.793  -9.511  -6.243  0.00  0.00    +0.222 HD
ENDBRANCH  26  30
ENDBRANCH  25  26
ENDBRANCH  21  25
ENDBRANCH  20  21
ENDBRANCH  19  20
ENDBRANCH   4  19
TORSDOF 11
ENDMDL
MODEL 8
REMARK VINA RESULT:    -6.326     24.757     27.213
REMARK INTER + INTRA:         -10.776
REMARK INTER:                  -9.736
REMARK INTRA:                  -1.040
REMARK UNBOUND:                -1.307
REMARK  Name = 
REMARK  11 active torsions:
REMARK  status: ('A' for Active; 'I' for Inactive)
REMARK    1  A    between atoms: C_1  and  N_2
REMARK    2  A    between atoms: C_4  and  O_9
REMARK    3  A    between atoms: C_7  and  C_13
REMARK    4  A    between atoms: C_8  and  O_14
REMARK    5  A    between atoms: C_13  and  O_16
REMARK    6  A    between atoms: O_16  and  P_18
REMARK    7  A    between atoms: P_18  and  O_19
REMARK    8  A    between atoms: P_18  and  O_20
REMARK    9  A    between atoms: O_19  and  P_22
REMARK   10  A    between atoms: P_22  and  O_23
REMARK   11  A    between atoms: P_22  and  O_24
REMARK                            x       y       z     vdW  Elec       q    Type
REMARK                         _______ _______ _______ _____ _____    ______ ____
ROOT
ATOM      1  C   UNL     1     -10.072 -13.174  -7.283  0.00  0.00    +0.255 C 
ATOM      2  O   UNL     1     -11.134 -13.594  -8.163  0.00  0.00    -0.346 OA
ATOM      3  C   UNL     1      -9.401 -11.966  -7.951  0.00  0.00    +0.195 C 
ATOM      4  C   UNL     1     -11.361 -12.569  -9.161  0.00  0.00    +0.178 C 
ATOM      5  C   UNL     1     -10.572 -11.346  -8.701  0.00  0.00    +0.178 C 
ENDROOT
BRANCH   1   6
ATOM      6  N   UNL     1      -9.193 -14.311  -7.029  0.00  0.00    -0.271 N 
ATOM      7  C   UNL     1      -8.267 -14.194  -5.999  0.00  0.00    +0.331 A 
ATOM      8  C   UNL     1      -9.306 -15.476  -7.766  0.00  0.00    +0.098 A 
ATOM      9  N   UNL     1      -7.495 -15.304  -5.767  0.00  0.00    -0.275 N 
ATOM     10  O   UNL     1      -8.118 -13.189  -5.307  0.00  0.00    -0.246 OA
ATOM     11  C   UNL     1      -8.544 -16.550  -7.530  0.00  0.00    +0.088 A 
ATOM     12  C   UNL     1      -7.571 -16.491  -6.430  0.00  0.00    +0.254 A 
ATOM     13  O   UNL     1      -6.882 -17.464  -6.150  0.00  0.00    -0.268 OA
ATOM     14  H   UNL     1      -6.839 -15.246  -5.006  0.00  0.00    +0.173 HD
ENDBRANCH   1   6
BRANCH   3  15
ATOM     15  O   UNL     1      -8.807 -11.053  -7.035  0.00  0.00    -0.385 OA
ATOM     16  H   UNL     1      -7.989 -11.476  -6.703  0.00  0.00    +0.210 HD
ENDBRANCH   3  15
BRANCH   5  17
ATOM     17  O   UNL     1     -11.328 -10.529  -7.791  0.00  0.00    -0.386 OA
ATOM     18  H   UNL     1     -12.053 -11.051  -7.402  0.00  0.00    +0.210 HD
ENDBRANCH   5  17
BRANCH   4  19
ATOM     19  C   UNL     1     -10.910 -13.099 -10.530  0.00  0.00    +0.206 C 
BRANCH  19  20
ATOM     20  O   UNL     1     -11.950 -12.850 -11.461  0.00  0.00    -0.284 OA
BRANCH  20  21
ATOM     21  P   UNL     1     -12.032 -11.453 -12.232  0.00  0.00    +0.483 P 
ATOM     22  O   UNL     1     -12.606 -10.328 -11.444  0.00  0.00    -0.227 OA
BRANCH  21  23
ATOM     23  O   UNL     1     -12.889 -11.805 -13.537  0.00  0.00    -0.302 OA
ATOM     24  H   UNL     1     -12.350 -12.214 -14.239  0.00  0.00    +0.222 HD
ENDBRANCH  21  23
BRANCH  21  25
ATOM     25  O   UNL     1     -10.546 -11.228 -12.780  0.00  0.00    -0.186 OA
BRANCH  25  26
ATOM     26  P   UNL     1     -10.291 -11.774 -14.401  0.00  0.00    +0.481 P 
ATOM     27  O   UNL     1     -10.063 -12.264 -15.852  0.00  0.00    -0.227 OA
BRANCH  26  28
ATOM     28  O   UNL     1     -10.786 -10.264 -14.807  0.00  0.00    -0.302 OA
ATOM     29  H   UNL     1     -10.354  -9.566 -14.290  0.00  0.00    +0.222 HD
ENDBRANCH  26  28
BRANCH  26  30
ATOM     30  O   UNL     1      -8.731 -11.350 -14.115  0.00  0.00    -0.302 OA
ATOM     31  H   UNL     1      -8.384 -11.690 -13.275  0.00  0.00    +0.222 HD
ENDBRANCH  26  30
ENDBRANCH  25  26
ENDBRANCH  21  25
ENDBRANCH  20  21
ENDBRANCH  19  20
ENDBRANCH   4  19
TORSDOF 11
ENDMDL
MODEL 9
REMARK VINA RESULT:    -6.211     42.478     44.240
REMARK INTER + INTRA:         -10.605
REMARK INTER:                  -9.272
REMARK INTRA:                  -1.333
REMARK UNBOUND:                -1.307
REMARK  Name = 
REMARK  11 active torsions:
REMARK  status: ('A' for Active; 'I' for Inactive)
REMARK    1  A    between atoms: C_1  and  N_2
REMARK    2  A    between atoms: C_4  and  O_9
REMARK    3  A    between atoms: C_7  and  C_13
REMARK    4  A    between atoms: C_8  and  O_14
REMARK    5  A    between atoms: C_13  and  O_16
REMARK    6  A    between atoms: O_16  and  P_18
REMARK    7  A    between atoms: P_18  and  O_19
REMARK    8  A    between atoms: P_18  and  O_20
REMARK    9  A    between atoms: O_19  and  P_22
REMARK   10  A    between atoms: P_22  and  O_23
REMARK   11  A    between atoms: P_22  and  O_24
REMARK                            x       y       z     vdW  Elec       q    Type
REMARK                         _______ _______ _______ _____ _____    ______ ____
ROOT
ATOM      1  C   UNL     1      -1.979  -2.531 -30.671  0.00  0.00    +0.255 C 
ATOM      2  O   UNL     1      -1.661  -2.514 -29.264  0.00  0.00    -0.346 OA
ATOM      3  C   UNL     1      -3.143  -3.517 -30.846  0.00  0.00    +0.195 C 
ATOM      4  C   UNL     1      -2.719  -3.174 -28.528  0.00  0.00    +0.178 C 
ATOM      5  C   UNL     1      -3.867  -3.368 -29.515  0.00  0.00    +0.178 C 
ENDROOT
BRANCH   1   6
ATOM      6  N   UNL     1      -0.771  -2.856 -31.423  0.00  0.00    -0.271 N 
ATOM      7  C   UNL     1      -0.094  -1.809 -32.040  0.00  0.00    +0.331 A 
ATOM      8  C   UNL     1      -0.300  -4.154 -31.485  0.00  0.00    +0.098 A 
ATOM      9  N   UNL     1       1.060  -2.156 -32.695  0.00  0.00    -0.275 N 
ATOM     10  O   UNL     1      -0.459  -0.636 -32.020  0.00  0.00    -0.246 OA
ATOM     11  C   UNL     1       0.828  -4.477 -32.130  0.00  0.00    +0.088 A 
ATOM     12  C   UNL     1       1.599  -3.404 -32.773  0.00  0.00    +0.254 A 
ATOM     13  O   UNL     1       2.658  -3.646 -33.339  0.00  0.00    -0.268 OA
ATOM     14  H   UNL     1       1.577  -1.406 -33.124  0.00  0.00    +0.173 HD
ENDBRANCH   1   6
BRANCH   3  15
ATOM     15  O   UNL     1      -3.988  -3.224 -31.953  0.00  0.00    -0.385 OA
ATOM     16  H   UNL     1      -4.335  -4.080 -32.279  0.00  0.00    +0.210 HD
ENDBRANCH   3  15
BRANCH   5  17
ATOM     17  O   UNL     1      -4.724  -2.215 -29.578  0.00  0.00    -0.386 OA
ATOM     18  H   UNL     1      -5.603  -2.435 -29.218  0.00  0.00    +0.210 HD
ENDBRANCH   5  17
BRANCH   4  19
ATOM     19  C   UNL     1      -2.182  -4.495 -27.959  0.00  0.00    +0.206 C 
BRANCH  19  20
ATOM     20  O   UNL     1      -0.800  -4.327 -27.691  0.00  0.00    -0.284 OA
BRANCH  20  21
ATOM     21  P   UNL     1       0.082  -5.556 -27.174  0.00  0.00    +0.483 P 
ATOM     22  O   UNL     1       0.273  -6.655 -28.159  0.00  0.00    -0.227 OA
BRANCH  21  23
ATOM     23  O   UNL     1      -0.687  -6.027 -25.851  0.00  0.00    -0.302 OA
ATOM     24  H   UNL     1      -0.675  -6.995 -25.737  0.00  0.00    +0.222 HD
ENDBRANCH  21  23
BRANCH  21  25
ATOM     25  O   UNL     1       1.421  -4.869 -26.633  0.00  0.00    -0.186 OA
BRANCH  25  26
ATOM     26  P   UNL     1       2.809  -5.901 -26.650  0.00  0.00    +0.481 P 
ATOM     27  O   UNL     1       4.052  -6.824 -26.665  0.00  0.00    -0.227 OA
BRANCH  26  28
ATOM     28  O   UNL     1       3.393  -4.848 -25.535  0.00  0.00    -0.302 OA
ATOM     29  H   UNL     1       2.761  -4.154 -25.295  0.00  0.00    +0.222 HD
ENDBRANCH  26  28
BRANCH  26  30
ATOM     30  O   UNL     1       1.946  -6.793 -25.576  0.00  0.00    -0.302 OA
ATOM     31  H   UNL     1       0.994  -6.811 -25.764  0.00  0.00    +0.222 HD
ENDBRANCH  26  30
ENDBRANCH  25  26
ENDBRANCH  21  25
ENDBRANCH  20  21
ENDBRANCH  19  20
ENDBRANCH   4  19
TORSDOF 11
ENDMDL
