REMARK  Name = 
REMARK  11 active torsions:
REMARK  status: ('A' for Active; 'I' for Inactive)
REMARK    1  A    between atoms: C_1  and  N_2
REMARK    2  A    between atoms: C_4  and  O_9
REMARK    3  A    between atoms: C_7  and  C_13
REMARK    4  A    between atoms: C_8  and  O_14
REMARK    5  A    between atoms: C_13  and  O_16
REMARK    6  A    between atoms: O_16  and  P_18
REMARK    7  A    between atoms: P_18  and  O_19
REMARK    8  A    between atoms: P_18  and  O_20
REMARK    9  A    between atoms: O_19  and  P_22
REMARK   10  A    between atoms: P_22  and  O_23
REMARK   11  A    between atoms: P_22  and  O_24
REMARK                            x       y       z     vdW  Elec       q    Type
REMARK                         _______ _______ _______ _____ _____    ______ ____
ROOT
ATOM      1  C   UNL     1       0.447   1.313   0.389  0.00  0.00    +0.255 C 
ATOM      2  O   UNL     1       1.621   0.486   0.250  0.00  0.00    -0.346 OA
ATOM      3  C   UNL     1      -0.649   0.666  -0.470  0.00  0.00    +0.195 C 
ATOM      4  C   UNL     1       1.251  -0.766  -0.376  0.00  0.00    +0.178 C 
ATOM      5  C   UNL     1      -0.275  -0.807  -0.378  0.00  0.00    +0.178 C 
ENDROOT
BRANCH   1   6
ATOM      6  N   UNL     1       0.792   2.684   0.027  0.00  0.00    -0.271 N 
ATOM      7  C   UNL     1       0.589   3.674   0.982  0.00  0.00    +0.331 A 
ATOM      8  C   UNL     1       1.335   2.978  -1.210  0.00  0.00    +0.098 A 
ATOM      9  N   UNL     1       0.971   4.939   0.614  0.00  0.00    -0.275 N 
ATOM     10  O   UNL     1       0.113   3.478   2.098  0.00  0.00    -0.246 OA
ATOM     11  C   UNL     1       1.701   4.218  -1.556  0.00  0.00    +0.088 A 
ATOM     12  C   UNL     1       1.538   5.297  -0.571  0.00  0.00    +0.254 A 
ATOM     13  O   UNL     1       1.898   6.439  -0.828  0.00  0.00    -0.268 OA
ATOM     14  H   UNL     1       0.857   5.663   1.304  0.00  0.00    +0.173 HD
ENDBRANCH   1   6
BRANCH   3  15
ATOM     15  O   UNL     1      -1.971   0.914  -0.005  0.00  0.00    -0.385 OA
ATOM     16  H   UNL     1      -2.161   0.242   0.681  0.00  0.00    +0.210 HD
ENDBRANCH   3  15
BRANCH   5  17
ATOM     17  O   UNL     1      -0.800  -1.345   0.848  0.00  0.00    -0.386 OA
ATOM     18  H   UNL     1      -0.216  -1.107   1.591  0.00  0.00    +0.210 HD
ENDBRANCH   5  17
BRANCH   4  19
ATOM     19  C   UNL     1       1.858  -0.816  -1.786  0.00  0.00    +0.206 C 
BRANCH  19  20
ATOM     20  O   UNL     1       3.252  -0.582  -1.672  0.00  0.00    -0.284 OA
BRANCH  20  21
ATOM     21  P   UNL     1       4.246  -1.015  -2.846  0.00  0.00    +0.483 P 
ATOM     22  O   UNL     1       3.997  -0.359  -4.159  0.00  0.00    -0.227 OA
BRANCH  21  23
ATOM     23  O   UNL     1       4.079  -2.606  -2.899  0.00  0.00    -0.302 OA
ATOM     24  H   UNL     1       3.580  -2.903  -3.682  0.00  0.00    +0.222 HD
ENDBRANCH  21  23
BRANCH  21  25
ATOM     25  O   UNL     1       5.701  -0.787  -2.223  0.00  0.00    -0.186 OA
BRANCH  25  26
ATOM     26  P   UNL     1       6.149   0.874  -2.043  0.00  0.00    +0.481 P 
ATOM     27  O   UNL     1       6.550   2.361  -1.882  0.00  0.00    -0.227 OA
BRANCH  26  28
ATOM     28  O   UNL     1       6.871   0.353  -0.665  0.00  0.00    -0.302 OA
ATOM     29  H   UNL     1       6.243   0.032   0.000  0.00  0.00    +0.222 HD
ENDBRANCH  26  28
BRANCH  26  30
ATOM     30  O   UNL     1       7.396   0.466  -3.030  0.00  0.00    -0.302 OA
ATOM     31  H   UNL     1       7.116   0.209  -3.923  0.00  0.00    +0.222 HD
ENDBRANCH  26  30
ENDBRANCH  25  26
ENDBRANCH  21  25
ENDBRANCH  20  21
ENDBRANCH  19  20
ENDBRANCH   4  19
TORSDOF 11
