REMARK  Name = 
REMARK  7 active torsions:
REMARK  status: ('A' for Active; 'I' for Inactive)
REMARK    1  A    between atoms: CA_1  and  CB_2
REMARK    2  A    between atoms: CA_1  and  C_3
REMARK    3  A    between atoms: CA_1  and  N_4
REMARK    4  A    between atoms: CB_2  and  CG_5
REMARK    5  A    between atoms: C_3  and  O_6
REMARK    6  A    between atoms: CG_5  and  CD1_8
REMARK    7  A    between atoms: CG_5  and  CD2_9
REMARK                            x       y       z     vdW  Elec       q    Type
REMARK                         _______ _______ _______ _____ _____    ______ ____
ROOT
ATOM      1  CA  LEU A   1       1.012  -0.084  -0.094  0.00  0.00    +0.161 C 
ENDROOT
BRANCH   1   2
ATOM      2  N   LEU A   1       2.477  -0.081   0.076  0.00  0.00    -0.318 NA
ATOM      3  H1  LEU A   1       3.005  -0.098  -0.792  0.00  0.00    +0.119 HD
ATOM      4  H2  LEU A   1       2.816  -0.706   0.801  0.00  0.00    +0.119 HD
ENDBRANCH   1   2
BRANCH   1   5
ATOM      5  C   LEU A   1       0.484  -1.445  -0.589  0.00  0.00    +0.322 C 
ATOM      6  OXT LEU A   1      -0.698  -1.701  -0.767  0.00  0.00    -0.249 OA
BRANCH   5   7
ATOM      7  O   LEU A   1       1.459  -2.357  -0.821  0.00  0.00    -0.480 OA
ATOM      8  H   LEU A   1       2.330  -1.962  -0.632  0.00  0.00    +0.295 HD
ENDBRANCH   5   7
ENDBRANCH   1   5
BRANCH   1   9
ATOM      9  CB  LEU A   1       0.574   1.014  -1.074  0.00  0.00    +0.033 C 
BRANCH   9  10
ATOM     10  CG  LEU A   1       1.005   2.448  -0.702  0.00  0.00    -0.015 C 
ATOM     11  CD1 LEU A   1       0.536   3.427  -1.783  0.00  0.00    +0.007 C 
ATOM     12  CD2 LEU A   1       0.465   2.885   0.660  0.00  0.00    +0.007 C 
ENDBRANCH   9  10
ENDBRANCH   1   9
TORSDOF 5
