REMARK  Name = 
REMARK  7 active torsions:
REMARK  status: ('A' for Active; 'I' for Inactive)
REMARK    1  A    between atoms: O_1  and  C_2
REMARK    2  A    between atoms: C_2  and  C_3
REMARK    3  A    between atoms: C_3  and  C_4
REMARK    4  A    between atoms: C_4  and  O_5
REMARK    5  A    between atoms: O_5  and  P_6
REMARK    6  A    between atoms: P_6  and  O_7
REMARK    7  A    between atoms: P_6  and  O_8
REMARK                            x       y       z     vdW  Elec       q    Type
REMARK                         _______ _______ _______ _____ _____    ______ ____
ROOT
ATOM      1  O   UNL     1       0.655  -1.565  -1.311  0.00  0.00    -0.279 OA
ENDROOT
BRANCH   1   2
ATOM      2  P   UNL     1      -0.469  -2.506  -2.229  0.00  0.00    +0.473 P 
ATOM      3  O   UNL     1      -1.475  -3.349  -3.051  0.00  0.00    -0.228 OA
BRANCH   2   4
ATOM      4  O   UNL     1      -1.373  -1.145  -2.216  0.00  0.00    -0.303 OA
ATOM      5  H   UNL     1      -1.201  -0.658  -1.389  0.00  0.00    +0.222 HD
ENDBRANCH   2   4
BRANCH   2   6
ATOM      6  O   UNL     1       0.379  -2.127  -3.573  0.00  0.00    -0.303 OA
ATOM      7  H   UNL     1      -0.268  -2.233  -4.302  0.00  0.00    +0.222 HD
ENDBRANCH   2   6
ENDBRANCH   1   2
BRANCH   1   8
ATOM      8  C   UNL     1       2.035  -1.875  -1.490  0.00  0.00    +0.249 C 
BRANCH   8   9
ATOM      9  C   UNL     1       2.924  -0.996  -0.622  0.00  0.00    +0.184 C 
ATOM     10  O   UNL     1       2.471  -0.233   0.227  0.00  0.00    -0.292 OA
BRANCH   9  11
ATOM     11  C   UNL     1       4.436  -1.163  -0.790  0.00  0.00    +0.232 C 
BRANCH  11  12
ATOM     12  O   UNL     1       4.846  -1.602  -2.069  0.00  0.00    -0.387 OA
ATOM     13  H   UNL     1       5.772  -1.313  -2.190  0.00  0.00    +0.210 HD
ENDBRANCH  11  12
ENDBRANCH   9  11
ENDBRANCH   8   9
ENDBRANCH   1   8
TORSDOF 7
