REMARK  Name = 
REMARK  7 active torsions:
REMARK  status: ('A' for Active; 'I' for Inactive)
REMARK    1  A    between atoms: CA_1  and  CB_2
REMARK    2  A    between atoms: CA_1  and  C_3
REMARK    3  A    between atoms: CA_1  and  N_4
REMARK    4  A    between atoms: CB_2  and  CG_5
REMARK    5  A    between atoms: C_3  and  O_6
REMARK    6  A    between atoms: CG_5  and  CD1_8
REMARK    7  A    between atoms: CG_5  and  CD2_9
REMARK                            x       y       z     vdW  Elec       q    Type
REMARK                         _______ _______ _______ _____ _____    ______ ____
ROOT
ATOM      1  CA  LEU A   1       1.060  -0.022   0.141  0.00  0.00    +0.161 C 
ENDROOT
BRANCH   1   2
ATOM      2  N   LEU A   1       2.524   0.098   0.011  0.00  0.00    -0.318 NA
ATOM      3  H1  LEU A   1       3.056  -0.498   0.635  0.00  0.00    +0.119 HD
ATOM      4  H2  LEU A   1       2.859   1.055  -0.068  0.00  0.00    +0.119 HD
ENDBRANCH   1   2
BRANCH   1   5
ATOM      5  C   LEU A   1       0.537   0.598   1.451  0.00  0.00    +0.322 C 
ATOM      6  OXT LEU A   1      -0.643   0.658   1.760  0.00  0.00    -0.249 OA
BRANCH   5   7
ATOM      7  O   LEU A   1       1.516   1.083   2.254  0.00  0.00    -0.480 OA
ATOM      8  H   LEU A   1       2.385   0.933   1.840  0.00  0.00    +0.295 HD
ENDBRANCH   5   7
ENDBRANCH   1   5
BRANCH   1   9
ATOM      9  CB  LEU A   1       0.623  -1.495   0.065  0.00  0.00    +0.033 C 
BRANCH   9  10
ATOM     10  CG  LEU A   1       1.060  -2.247  -1.211  0.00  0.00    -0.015 C 
ATOM     11  CD1 LEU A   1       0.594  -3.705  -1.148  0.00  0.00    +0.007 C 
ATOM     12  CD2 LEU A   1       0.524  -1.590  -2.484  0.00  0.00    +0.007 C 
ENDBRANCH   9  10
ENDBRANCH   1   9
TORSDOF 5
