REMARK  Name = 
REMARK  1 active torsions:
REMARK  status: ('A' for Active; 'I' for Inactive)
REMARK    1  A    between atoms: N_1  and  O_2
REMARK                            x       y       z     vdW  Elec       q    Type
REMARK                         _______ _______ _______ _____ _____    ______ ____
ROOT
ATOM      1  N   UNL     1       0.994  -0.039   0.059  0.00  0.00    +0.153 NA
ATOM      2  O   UNL     1       2.227  -0.087   0.080  0.00  0.00    -0.106 OA
ENDROOT
BRANCH   1   3
ATOM      3  O   UNL     1       0.447  -1.204   0.570  0.00  0.00    -0.378 OA
ATOM      4  H   UNL     1      -0.502  -1.019   0.489  0.00  0.00    +0.331 HD
ENDBRANCH   1   3
TORSDOF 1
