REMARK  Name = 
REMARK  5 active torsions:
REMARK  status: ('A' for Active; 'I' for Inactive)
REMARK    1  A    between atoms: C_1  and  C_2
REMARK    2  A    between atoms: C_1  and  C_3
REMARK    3  A    between atoms: C_1  and  O_4
REMARK    4  A    between atoms: C_2  and  O_5
REMARK    5  A    between atoms: C_3  and  O_7
REMARK                            x       y       z     vdW  Elec       q    Type
REMARK                         _______ _______ _______ _____ _____    ______ ____
ROOT
ATOM      1  C   UNL     1       1.056  -0.127   0.105  0.00  0.00    +0.248 C 
ENDROOT
BRANCH   1   2
ATOM      2  C   UNL     1       0.574  -0.976   1.275  0.00  0.00    +0.336 C 
ATOM      3  O   UNL     1      -0.478  -0.826   1.876  0.00  0.00    -0.248 OA
BRANCH   2   4
ATOM      4  O   UNL     1       1.474  -1.950   1.577  0.00  0.00    -0.479 OA
ATOM      5  H   UNL     1       2.262  -1.830   0.996  0.00  0.00    +0.295 HD
ENDBRANCH   2   4
ENDBRANCH   1   2
BRANCH   1   6
ATOM      6  O   UNL     1       2.494  -0.202   0.075  0.00  0.00    -0.379 OA
ATOM      7  H   UNL     1       2.797   0.517   0.673  0.00  0.00    +0.211 HD
ENDBRANCH   1   6
BRANCH   1   8
ATOM      8  C   UNL     1       0.608   1.324   0.257  0.00  0.00    +0.198 C 
BRANCH   8   9
ATOM      9  O   UNL     1       1.219   1.898   1.417  0.00  0.00    -0.392 OA
ATOM     10  H   UNL     1       0.601   1.751   2.162  0.00  0.00    +0.210 HD
ENDBRANCH   8   9
ENDBRANCH   1   8
TORSDOF 5
