REMARK  Name = 
REMARK  5 active torsions:
REMARK  status: ('A' for Active; 'I' for Inactive)
REMARK    1  A    between atoms: P_1  and  O_2
REMARK    2  A    between atoms: P_1  and  O_3
REMARK    3  A    between atoms: P_1  and  O_4
REMARK    4  A    between atoms: O_2  and  C_6
REMARK    5  A    between atoms: C_6  and  C_7
REMARK                            x       y       z     vdW  Elec       q    Type
REMARK                         _______ _______ _______ _____ _____    ______ ____
ROOT
ATOM      1  P   UNL     1       1.048  -0.073  -0.049  0.00  0.00    +0.530 P 
ATOM      2  O   UNL     1       2.336   0.516  -0.676  0.00  0.00    -0.216 OA
ENDROOT
BRANCH   1   3
ATOM      3  O   UNL     1       0.016   0.555  -1.156  0.00  0.00    -0.293 OA
ATOM      4  H   UNL     1      -0.597  -0.131  -1.468  0.00  0.00    +0.223 HD
ENDBRANCH   1   3
BRANCH   1   5
ATOM      5  O   UNL     1      -0.390  -0.731   0.652  0.00  0.00    -0.293 OA
ATOM      6  H   UNL     1      -0.167  -1.051   1.555  0.00  0.00    +0.223 HD
ENDBRANCH   1   5
BRANCH   1   7
ATOM      7  O   UNL     1       0.871   1.136   1.065  0.00  0.00    -0.372 OA
BRANCH   7   8
ATOM      8  C   UNL     1       1.084   0.882   2.368  0.00  0.00    +0.312 C 
ATOM      9  C   UNL     1       0.975   2.110   3.215  0.00  0.00    +0.136 C 
ATOM     10  O   UNL     1       1.258  -0.252   2.799  0.00  0.00    -0.251 OA
ENDBRANCH   7   8
ENDBRANCH   1   7
TORSDOF 4
