REMARK  Name = 
REMARK  5 active torsions:
REMARK  status: ('A' for Active; 'I' for Inactive)
REMARK    1  A    between atoms: CA_1  and  CB_2
REMARK    2  A    between atoms: CA_1  and  C_6
REMARK    3  A    between atoms: CA_1  and  N_9
REMARK    4  A    between atoms: CB_2  and  CG_3
REMARK    5  A    between atoms: C_6  and  O_7
REMARK                            x       y       z     vdW  Elec       q    Type
REMARK                         _______ _______ _______ _____ _____    ______ ____
ROOT
ATOM      1  CA  ASN A   1       1.094   0.097  -0.047  0.00  0.00    +0.169 C 
ENDROOT
BRANCH   1   2
ATOM      2  N   ASN A   1       2.578   0.203  -0.033  0.00  0.00    -0.318 NA
ATOM      3  H1  ASN A   1       3.003  -0.250   0.774  0.00  0.00    +0.119 HD
ATOM      4  H2  ASN A   1       2.900   1.160  -0.172  0.00  0.00    +0.119 HD
ENDBRANCH   1   2
BRANCH   1   5
ATOM      5  C   ASN A   1       0.439   0.942   1.061  0.00  0.00    +0.322 C 
ATOM      6  OXT ASN A   1      -0.769   1.072   1.194  0.00  0.00    -0.249 OA
BRANCH   5   7
ATOM      7  O   ASN A   1       1.317   1.536   1.902  0.00  0.00    -0.480 OA
ATOM      8  H   ASN A   1       2.237   1.323   1.670  0.00  0.00    +0.295 HD
ENDBRANCH   5   7
ENDBRANCH   1   5
BRANCH   1   9
ATOM      9  CB  ASN A   1       0.622  -1.351   0.107  0.00  0.00    +0.125 C 
BRANCH   9  10
ATOM     10  CG  ASN A   1       1.062  -2.332  -0.959  0.00  0.00    +0.213 C 
ATOM     11  ND2 ASN A   1       1.948  -1.900  -1.896  0.00  0.00    -0.329 N 
ATOM     12  OD1 ASN A   1       0.665  -3.495  -0.980  0.00  0.00    -0.276 OA
ATOM     13 HD21 ASN A   1       2.540  -1.102  -1.687  0.00  0.00    +0.145 HD
ATOM     14 HD22 ASN A   1       2.320  -2.605  -2.519  0.00  0.00    +0.145 HD
ENDBRANCH   9  10
ENDBRANCH   1   9
TORSDOF 5
