REMARK  Name = 
REMARK  2 active torsions:
REMARK  status: ('A' for Active; 'I' for Inactive)
REMARK    1  A    between atoms: S_1  and  O_2
REMARK    2  A    between atoms: S_1  and  O_3
REMARK                            x       y       z     vdW  Elec       q    Type
REMARK                         _______ _______ _______ _____ _____    ______ ____
ROOT
ATOM      1  S   UNL     1       0.792  -0.056   0.006  0.00  0.00    +0.137 S 
ATOM      2  O   UNL     1       2.287  -0.093  -0.022  0.00  0.00    -0.137 OA
ENDROOT
BRANCH   1   3
ATOM      3  O   UNL     1       0.360  -0.378   1.514  0.00  0.00    -0.246 OA
ATOM      4  H   UNL     1      -0.311  -1.102   1.504  0.00  0.00    +0.245 HD
ENDBRANCH   1   3
BRANCH   1   5
ATOM      5  O   UNL     1       0.377   1.481   0.034  0.00  0.00    -0.246 OA
ATOM      6  H   UNL     1      -0.312   1.646  -0.651  0.00  0.00    +0.245 HD
ENDBRANCH   1   5
TORSDOF 2
