REMARK  Name = 
REMARK  1 active torsions:
REMARK  status: ('A' for Active; 'I' for Inactive)
REMARK    1  A    between atoms: C_1  and  N_2
REMARK                            x       y       z     vdW  Elec       q    Type
REMARK                         _______ _______ _______ _____ _____    ______ ____
ROOT
ATOM      1  C   UNL     1       0.948   0.032  -0.060  0.00  0.00    +0.097 C 
ATOM      2  N   UNL     1       2.400   0.027  -0.047  0.00  0.00    -0.333 NA
ATOM      3  H   UNL     1       2.744   0.959  -0.277  0.00  0.00    +0.118 HD
ATOM      4  H   UNL     1       2.744  -0.591  -0.780  0.00  0.00    +0.118 HD
ENDROOT
TORSDOF 0
