REMARK  Name = 
REMARK  12 active torsions:
REMARK  status: ('A' for Active; 'I' for Inactive)
REMARK    1  A    between atoms: C_1  and  O_3
REMARK    2  A    between atoms: C_2  and  C_6
REMARK    3  A    between atoms: O_3  and  C_7
REMARK    4  A    between atoms: C_4  and  O_9
REMARK    5  A    between atoms: C_6  and  O_11
REMARK    6  A    between atoms: C_8  and  O_14
REMARK    7  A    between atoms: C_10  and  O_15
REMARK    8  A    between atoms: C_13  and  O_18
REMARK    9  A    between atoms: C_16  and  C_20
REMARK   10  A    between atoms: C_17  and  O_21
REMARK   11  A    between atoms: C_19  and  O_22
REMARK   12  A    between atoms: C_20  and  O_23
REMARK                            x       y       z     vdW  Elec       q    Type
REMARK                         _______ _______ _______ _____ _____    ______ ____
ROOT
ATOM      1  O   UNL     1       0.871   0.643  -1.789  0.00  0.00    -0.340 OA
ENDROOT
BRANCH   1   2
ATOM      2  C   UNL     1       0.353   0.314  -0.472  0.00  0.00    +0.183 C 
ATOM      3  C   UNL     1      -1.199   0.149  -0.627  0.00  0.00    +0.178 C 
ATOM      4  C   UNL     1       0.745   1.292   0.677  0.00  0.00    +0.179 C 
ATOM      5  O   UNL     1      -1.997   1.268  -0.222  0.00  0.00    -0.341 OA
ATOM      6  C   UNL     1      -0.235   2.454   0.853  0.00  0.00    +0.201 C 
ATOM      7  C   UNL     1      -1.637   1.870   1.020  0.00  0.00    +0.279 C 
BRANCH   4   8
ATOM      8  O   UNL     1       0.809   0.559   1.916  0.00  0.00    -0.386 OA
ATOM      9  H   UNL     1       1.586  -0.031   1.858  0.00  0.00    +0.210 HD
ENDBRANCH   4   8
BRANCH   6  10
ATOM     10  O   UNL     1      -0.160   3.350  -0.260  0.00  0.00    -0.384 OA
ATOM     11  H   UNL     1      -0.568   2.895  -1.024  0.00  0.00    +0.210 HD
ENDBRANCH   6  10
BRANCH   7  12
ATOM     12  O   UNL     1      -1.767   0.975   2.109  0.00  0.00    -0.365 OA
ATOM     13  H   UNL     1      -0.860   0.749   2.416  0.00  0.00    +0.213 HD
ENDBRANCH   7  12
BRANCH   3  14
ATOM     14  C   UNL     1      -1.770  -1.140  -0.005  0.00  0.00    +0.190 C 
BRANCH  14  15
ATOM     15  O   UNL     1      -1.497  -2.253  -0.865  0.00  0.00    -0.392 OA
ATOM     16  H   UNL     1      -2.245  -2.872  -0.769  0.00  0.00    +0.210 HD
ENDBRANCH  14  15
ENDBRANCH   3  14
ENDBRANCH   1   2
BRANCH   1  17
ATOM     17  C   UNL     1       2.209   1.147  -1.890  0.00  0.00    +0.282 C 
ATOM     18  O   UNL     1       2.480   1.520  -3.250  0.00  0.00    -0.341 OA
ATOM     19  C   UNL     1       3.319   0.337  -1.141  0.00  0.00    +0.201 C 
ATOM     20  C   UNL     1       3.276   0.662  -4.062  0.00  0.00    +0.178 C 
ATOM     21  C   UNL     1       4.264  -0.488  -2.022  0.00  0.00    +0.179 C 
ATOM     22  C   UNL     1       4.551   0.247  -3.328  0.00  0.00    +0.177 C 
BRANCH  19  23
ATOM     23  O   UNL     1       4.121   1.282  -0.387  0.00  0.00    -0.384 OA
ATOM     24  H   UNL     1       4.776   1.658  -1.013  0.00  0.00    +0.210 HD
ENDBRANCH  19  23
BRANCH  21  25
ATOM     25  O   UNL     1       3.818  -1.828  -2.198  0.00  0.00    -0.386 OA
ATOM     26  H   UNL     1       2.975  -1.825  -2.703  0.00  0.00    +0.210 HD
ENDBRANCH  21  25
BRANCH  22  27
ATOM     27  O   UNL     1       5.291   1.443  -2.983  0.00  0.00    -0.386 OA
ATOM     28  H   UNL     1       4.849   2.210  -3.398  0.00  0.00    +0.210 HD
ENDBRANCH  22  27
BRANCH  20  29
ATOM     29  C   UNL     1       2.471  -0.476  -4.716  0.00  0.00    +0.190 C 
BRANCH  29  30
ATOM     30  O   UNL     1       1.884  -1.353  -3.767  0.00  0.00    -0.392 OA
ATOM     31  H   UNL     1       0.959  -1.057  -3.642  0.00  0.00    +0.210 HD
ENDBRANCH  29  30
ENDBRANCH  20  29
ENDBRANCH   1  17
TORSDOF 12
