REMARK  Name = 
REMARK  24 active torsions:
REMARK  status: ('A' for Active; 'I' for Inactive)
REMARK    1  A    between atoms: C_1  and  C_2
REMARK    2  A    between atoms: C_1  and  C_29
REMARK    3  A    between atoms: C_2  and  C_3
REMARK    4  A    between atoms: C_3  and  C_4
REMARK    5  A    between atoms: C_5  and  C_6
REMARK    6  A    between atoms: C_5  and  C_7
REMARK    7  A    between atoms: C_7  and  C_8
REMARK    8  A    between atoms: C_8  and  C_9
REMARK    9  A    between atoms: C_8  and  C_11
REMARK   10  A    between atoms: C_10  and  C_11
REMARK   11  A    between atoms: C_10  and  O_12
REMARK   12  A    between atoms: O_12  and  P_13
REMARK   13  A    between atoms: P_13  and  O_14
REMARK   14  A    between atoms: P_13  and  O_15
REMARK   15  A    between atoms: C_17  and  C_18
REMARK   16  A    between atoms: C_18  and  C_20
REMARK   17  A    between atoms: C_19  and  C_21
REMARK   18  A    between atoms: C_21  and  C_22
REMARK   19  A    between atoms: C_22  and  C_23
REMARK   20  A    between atoms: C_23  and  C_25
REMARK   21  A    between atoms: C_24  and  C_26
REMARK   22  A    between atoms: C_26  and  C_27
REMARK   23  A    between atoms: C_27  and  C_28
REMARK   24  A    between atoms: C_28  and  C_30
REMARK                            x       y       z     vdW  Elec       q    Type
REMARK                         _______ _______ _______ _____ _____    ______ ____
ROOT
ATOM      1  C   UNL     1       6.713  -3.740  -6.210  0.00  0.00    +0.034 C 
ENDROOT
BRANCH   1   2
ATOM      2  C   UNL     1       7.255  -2.321  -6.115  0.00  0.00    -0.076 C 
ATOM      3  C   UNL     1       7.031  -1.405  -7.280  0.00  0.00    +0.039 C 
ATOM      4  C   UNL     1       7.904  -1.842  -5.028  0.00  0.00    -0.028 C 
BRANCH   4   5
ATOM      5  C   UNL     1       8.211  -2.677  -3.825  0.00  0.00    +0.027 C 
BRANCH   5   6
ATOM      6  C   UNL     1       9.002  -1.941  -2.743  0.00  0.00    +0.007 C 
BRANCH   6   7
ATOM      7  C   UNL     1       9.290  -2.865  -1.542  0.00  0.00    -0.012 C 
ATOM      8  C   UNL     1      10.139  -4.080  -1.948  0.00  0.00    +0.007 C 
BRANCH   7   9
ATOM      9  C   UNL     1       9.962  -2.063  -0.414  0.00  0.00    +0.032 C 
BRANCH   9  10
ATOM     10  C   UNL     1      10.168  -2.920   0.822  0.00  0.00    +0.172 C 
BRANCH  10  11
ATOM     11  O   UNL     1      10.739  -2.151   1.865  0.00  0.00    -0.287 OA
BRANCH  11  12
ATOM     12  P   UNL     1      10.969  -3.122   3.278  0.00  0.00    +0.472 P 
ATOM     13  O   UNL     1      11.175  -3.992   4.543  0.00  0.00    -0.228 OA
BRANCH  12  14
ATOM     14  O   UNL     1      11.399  -1.716   3.985  0.00  0.00    -0.303 OA
ATOM     15  H   UNL     1      11.790  -1.157   3.289  0.00  0.00    +0.222 HD
ENDBRANCH  12  14
BRANCH  12  16
ATOM     16  O   UNL     1      12.435  -3.501   2.660  0.00  0.00    -0.303 OA
ATOM     17  H   UNL     1      12.681  -4.381   3.006  0.00  0.00    +0.222 HD
ENDBRANCH  12  16
ENDBRANCH  11  12
ENDBRANCH  10  11
ENDBRANCH   9  10
ENDBRANCH   7   9
ENDBRANCH   6   7
ENDBRANCH   5   6
ENDBRANCH   4   5
ENDBRANCH   1   2
BRANCH   1  18
ATOM     18  C   UNL     1       5.187  -3.848  -6.369  0.00  0.00    +0.031 C 
BRANCH  18  20
ATOM     19  C   UNL     1       3.244  -3.578  -4.732  0.00  0.00    -0.076 C 
ATOM     20  C   UNL     1       4.431  -3.191  -5.247  0.00  0.00    -0.028 C 
ATOM     21  C   UNL     1       2.495  -4.766  -5.273  0.00  0.00    +0.039 C 
BRANCH  19  22
ATOM     22  C   UNL     1       2.550  -2.809  -3.617  0.00  0.00    +0.034 C 
BRANCH  22  23
ATOM     23  C   UNL     1       2.895  -1.310  -3.548  0.00  0.00    +0.031 C 
BRANCH  23  25
ATOM     24  C   UNL     1       2.649   0.451  -1.732  0.00  0.00    -0.076 C 
ATOM     25  C   UNL     1       2.172  -0.605  -2.435  0.00  0.00    -0.028 C 
ATOM     26  C   UNL     1       3.983   1.065  -2.043  0.00  0.00    +0.039 C 
BRANCH  24  27
ATOM     27  C   UNL     1       1.872   1.123  -0.607  0.00  0.00    +0.034 C 
BRANCH  27  28
ATOM     28  C   UNL     1       0.523   0.475  -0.293  0.00  0.00    +0.031 C 
BRANCH  28  31
ATOM     29  C   UNL     1      -2.176  -0.540   0.573  0.00  0.00    +0.038 C 
ATOM     30  C   UNL     1      -1.483   0.644   1.194  0.00  0.00    -0.080 C 
ATOM     31  C   UNL     1      -0.273   1.102   0.814  0.00  0.00    -0.028 C 
ATOM     32  C   UNL     1      -2.239   1.313   2.307  0.00  0.00    +0.038 C 
ENDBRANCH  28  31
ENDBRANCH  27  28
ENDBRANCH  24  27
ENDBRANCH  23  25
ENDBRANCH  22  23
ENDBRANCH  19  22
ENDBRANCH  18  20
ENDBRANCH   1  18
TORSDOF 18
