REMARK  Name = 
REMARK  1 active torsions:
REMARK  status: ('A' for Active; 'I' for Inactive)
REMARK    1  A    between atoms: N_1  and  O_2
REMARK                            x       y       z     vdW  Elec       q    Type
REMARK                         _______ _______ _______ _____ _____    ______ ____
ROOT
ATOM      1  N   UNL     1       0.898  -0.009  -0.062  0.00  0.00    +0.215 N 
ATOM      2  O   UNL     1       0.090  -0.641   0.608  0.00  0.00    -0.090 OA
ATOM      3  O   UNL     1       2.123   0.010  -0.083  0.00  0.00    -0.090 OA
ENDROOT
BRANCH   1   4
ATOM      4  O   UNL     1       0.287   0.842  -0.964  0.00  0.00    -0.367 OA
ATOM      5  H   UNL     1      -0.609   0.590  -0.697  0.00  0.00    +0.332 HD
ENDBRANCH   1   4
TORSDOF 1
