REMARK  Name = 
REMARK  5 active torsions:
REMARK  status: ('A' for Active; 'I' for Inactive)
REMARK    1  A    between atoms: C_1  and  N_2
REMARK    2  A    between atoms: C_1  and  C_3
REMARK    3  A    between atoms: C_3  and  C_5
REMARK    4  A    between atoms: C_5  and  C_8
REMARK    5  A    between atoms: C_8  and  N_9
REMARK                            x       y       z     vdW  Elec       q    Type
REMARK                         _______ _______ _______ _____ _____    ______ ____
ROOT
ATOM      1  N   UNL     1       0.415   1.228  -0.483  0.00  0.00    -0.356 N 
ATOM      2  C   UNL     1      -0.899   1.418  -0.719  0.00  0.00    +0.188 C 
ATOM      3  N   UNL     1      -1.153   2.563  -1.378  0.00  0.00    -0.370 N 
ATOM      4  N   UNL     1      -1.883   0.660  -0.389  0.00  0.00    -0.269 NA
ATOM      5  H   UNL     1       1.019   1.760  -1.100  0.00  0.00    +0.162 HD
ATOM      6  H   UNL     1      -0.589   3.354  -1.083  0.00  0.00    +0.159 HD
ATOM      7  H   UNL     1      -2.144   2.778  -1.325  0.00  0.00    +0.159 HD
ATOM      8  H   UNL     1      -1.523  -0.161   0.096  0.00  0.00    +0.190 HD
ENDROOT
BRANCH   1   9
ATOM      9  C   UNL     1       0.964  -0.048  -0.061  0.00  0.00    +0.115 C 
BRANCH   9  10
ATOM     10  C   UNL     1       2.491  -0.024  -0.075  0.00  0.00    +0.022 C 
BRANCH  10  11
ATOM     11  C   UNL     1       3.050  -1.350   0.450  0.00  0.00    +0.017 C 
BRANCH  11  12
ATOM     12  C   UNL     1       4.575  -1.367   0.453  0.00  0.00    +0.078 C 
BRANCH  12  13
ATOM     13  N   UNL     1       5.054  -2.647   0.961  0.00  0.00    -0.330 NA
ATOM     14  H   UNL     1       4.744  -2.775   1.923  0.00  0.00    +0.118 HD
ATOM     15  H   UNL     1       6.074  -2.644   0.990  0.00  0.00    +0.118 HD
ENDBRANCH  12  13
ENDBRANCH  11  12
ENDBRANCH  10  11
ENDBRANCH   9  10
ENDBRANCH   1   9
TORSDOF 5
