REMARK  Name = 
REMARK  14 active torsions:
REMARK  status: ('A' for Active; 'I' for Inactive)
REMARK    1  A    between atoms: C_1  and  O_4
REMARK    2  A    between atoms: C_3  and  O_7
REMARK    3  A    between atoms: O_4  and  P_8
REMARK    4  A    between atoms: C_5  and  C_9
REMARK    5  A    between atoms: C_6  and  O_10
REMARK    6  A    between atoms: P_8  and  O_11
REMARK    7  A    between atoms: P_8  and  O_12
REMARK    8  A    between atoms: C_9  and  O_14
REMARK    9  A    between atoms: O_11  and  P_15
REMARK   10  A    between atoms: O_14  and  P_16
REMARK   11  A    between atoms: P_15  and  O_17
REMARK   12  A    between atoms: P_15  and  O_18
REMARK   13  A    between atoms: P_16  and  O_20
REMARK   14  A    between atoms: P_16  and  O_21
REMARK                            x       y       z     vdW  Elec       q    Type
REMARK                         _______ _______ _______ _____ _____    ______ ____
ROOT
ATOM      1  C   UNL     1       1.023   1.364   0.648  0.00  0.00    +0.293 C 
ATOM      2  O   UNL     1       2.015   0.294   0.437  0.00  0.00    -0.340 OA
ATOM      3  C   UNL     1       0.321   1.429  -0.735  0.00  0.00    +0.202 C 
ATOM      4  C   UNL     1       1.557  -0.613  -0.621  0.00  0.00    +0.179 C 
ATOM      5  C   UNL     1       0.309  -0.009  -1.250  0.00  0.00    +0.179 C 
ENDROOT
BRANCH   3   6
ATOM      6  O   UNL     1      -0.936   2.069  -0.782  0.00  0.00    -0.384 OA
ATOM      7  H   UNL     1      -1.527   1.489  -1.300  0.00  0.00    +0.210 HD
ENDBRANCH   3   6
BRANCH   5   8
ATOM      8  O   UNL     1      -0.857  -0.713  -0.849  0.00  0.00    -0.386 OA
ATOM      9  H   UNL     1      -0.743  -1.657  -1.071  0.00  0.00    +0.210 HD
ENDBRANCH   5   8
BRANCH   1  10
ATOM     10  O   UNL     1       0.107   1.234   1.758  0.00  0.00    -0.254 OA
BRANCH  10  11
ATOM     11  P   UNL     1       0.761   1.385   3.352  0.00  0.00    +0.486 P 
ATOM     12  O   UNL     1       1.346   1.520   4.779  0.00  0.00    -0.227 OA
BRANCH  11  13
ATOM     13  O   UNL     1       0.379  -0.207   3.520  0.00  0.00    -0.302 OA
ATOM     14  H   UNL     1       1.141  -0.780   3.339  0.00  0.00    +0.222 HD
ENDBRANCH  11  13
BRANCH  11  15
ATOM     15  O   UNL     1      -0.746   2.029   3.909  0.00  0.00    -0.186 OA
BRANCH  15  16
ATOM     16  P   UNL     1      -0.734   3.751   3.741  0.00  0.00    +0.481 P 
ATOM     17  O   UNL     1      -0.723   5.292   3.591  0.00  0.00    -0.227 OA
BRANCH  16  18
ATOM     18  O   UNL     1      -0.677   3.547   2.129  0.00  0.00    -0.302 OA
ATOM     19  H   UNL     1      -1.535   3.205   1.800  0.00  0.00    +0.222 HD
ENDBRANCH  16  18
BRANCH  16  20
ATOM     20  O   UNL     1      -2.368   3.729   3.816  0.00  0.00    -0.302 OA
ATOM     21  H   UNL     1      -2.642   4.658   3.667  0.00  0.00    +0.222 HD
ENDBRANCH  16  20
ENDBRANCH  15  16
ENDBRANCH  11  15
ENDBRANCH  10  11
ENDBRANCH   1  10
BRANCH   4  22
ATOM     22  C   UNL     1       2.611  -1.032  -1.732  0.00  0.00    +0.206 C 
BRANCH  22  23
ATOM     23  O   UNL     1       3.063   0.032  -2.631  0.00  0.00    -0.284 OA
BRANCH  23  24
ATOM     24  P   UNL     1       3.950   1.055  -1.554  0.00  0.00    +0.472 P 
ATOM     25  O   UNL     1       4.744   1.971  -0.591  0.00  0.00    -0.228 OA
BRANCH  24  26
ATOM     26  O   UNL     1       5.267   0.280  -2.136  0.00  0.00    -0.303 OA
ATOM     27  H   UNL     1       5.511   0.741  -2.960  0.00  0.00    +0.222 HD
ENDBRANCH  24  26
BRANCH  24  28
ATOM     28  O   UNL     1       3.923   2.148  -2.773  0.00  0.00    -0.303 OA
ATOM     29  H   UNL     1       3.309   2.882  -2.593  0.00  0.00    +0.222 HD
ENDBRANCH  24  28
ENDBRANCH  23  24
ENDBRANCH  22  23
ENDBRANCH   4  22
TORSDOF 14
