REMARK  Name = 
REMARK  13 active torsions:
REMARK  status: ('A' for Active; 'I' for Inactive)
REMARK    1  A    between atoms: N_1  and  C_3
REMARK    2  A    between atoms: C_12  and  C_16
REMARK    3  A    between atoms: C_13  and  O_17
REMARK    4  A    between atoms: C_16  and  O_18
REMARK    5  A    between atoms: O_18  and  P_19
REMARK    6  A    between atoms: P_19  and  O_20
REMARK    7  A    between atoms: P_19  and  O_21
REMARK    8  A    between atoms: O_20  and  P_23
REMARK    9  A    between atoms: P_23  and  O_24
REMARK   10  A    between atoms: P_23  and  O_25
REMARK   11  A    between atoms: O_24  and  P_27
REMARK   12  A    between atoms: P_27  and  O_28
REMARK   13  A    between atoms: P_27  and  O_29
REMARK                            x       y       z     vdW  Elec       q    Type
REMARK                         _______ _______ _______ _____ _____    ______ ____
ROOT
ATOM      1  C   UNL     1       2.043   2.515  -0.019  0.00  0.00    +0.225 C 
ATOM      2  O   UNL     1       1.758   3.240   1.203  0.00  0.00    -0.348 OA
ATOM      3  C   UNL     1       1.535   3.372  -1.169  0.00  0.00    +0.088 C 
ATOM      4  C   UNL     1       1.266   4.563   0.886  0.00  0.00    +0.175 C 
ATOM      5  C   UNL     1       1.611   4.770  -0.591  0.00  0.00    +0.150 C 
ENDROOT
BRANCH   1   6
ATOM      6  N   UNL     1       1.474   1.183   0.052  0.00  0.00    -0.288 N 
ATOM      7  C   UNL     1       1.638   0.188  -0.878  0.00  0.00    +0.167 A 
ATOM      8  C   UNL     1       0.750   0.653   1.090  0.00  0.00    +0.203 A 
ATOM      9  C   UNL     1       0.967  -0.910  -0.353  0.00  0.00    +0.147 A 
ATOM     10  N   UNL     1       2.309   0.246  -2.043  0.00  0.00    -0.216 NA
ATOM     11  N   UNL     1       0.421  -0.604   0.876  0.00  0.00    -0.231 NA
ATOM     12  C   UNL     1       0.976  -2.083  -1.117  0.00  0.00    +0.147 A 
ATOM     13  C   UNL     1       2.251  -0.941  -2.686  0.00  0.00    +0.225 A 
ATOM     14  N   UNL     1       1.647  -2.089  -2.292  0.00  0.00    -0.219 NA
ATOM     15  N   UNL     1       0.355  -3.261  -0.707  0.00  0.00    -0.341 N 
ATOM     16  H   UNL     1       0.195  -3.293   0.295  0.00  0.00    +0.144 HD
ATOM     17  H   UNL     1       0.753  -4.077  -1.146  0.00  0.00    +0.144 HD
ENDBRANCH   1   6
BRANCH   5  18
ATOM     18  O   UNL     1       2.938   5.272  -0.742  0.00  0.00    -0.389 OA
ATOM     19  H   UNL     1       3.509   4.887  -0.051  0.00  0.00    +0.210 HD
ENDBRANCH   5  18
BRANCH   4  20
ATOM     20  C   UNL     1      -0.249   4.644   1.122  0.00  0.00    +0.206 C 
BRANCH  20  21
ATOM     21  O   UNL     1      -0.613   4.361   2.475  0.00  0.00    -0.284 OA
BRANCH  21  22
ATOM     22  P   UNL     1      -2.302   4.405   2.850  0.00  0.00    +0.483 P 
ATOM     23  O   UNL     1      -3.813   4.444   3.185  0.00  0.00    -0.227 OA
BRANCH  22  24
ATOM     24  O   UNL     1      -1.917   3.498   4.159  0.00  0.00    -0.302 OA
ATOM     25  H   UNL     1      -2.134   3.951   4.992  0.00  0.00    +0.222 HD
ENDBRANCH  22  24
BRANCH  22  26
ATOM     26  O   UNL     1      -2.531   3.181   1.798  0.00  0.00    -0.186 OA
BRANCH  26  27
ATOM     27  P   UNL     1      -3.349   3.449   0.452  0.00  0.00    +0.492 P 
ATOM     28  O   UNL     1      -2.980   4.693  -0.279  0.00  0.00    -0.226 OA
BRANCH  27  29
ATOM     29  O   UNL     1      -4.892   3.360   0.861  0.00  0.00    -0.302 OA
ATOM     30  H   UNL     1      -5.110   4.016   1.559  0.00  0.00    +0.222 HD
ENDBRANCH  27  29
BRANCH  27  31
ATOM     31  O   UNL     1      -3.097   2.083  -0.321  0.00  0.00    -0.186 OA
BRANCH  31  32
ATOM     32  P   UNL     1      -3.896   1.815  -1.832  0.00  0.00    +0.481 P 
ATOM     33  O   UNL     1      -4.611   1.574  -3.185  0.00  0.00    -0.227 OA
BRANCH  32  34
ATOM     34  O   UNL     1      -2.613   0.854  -2.167  0.00  0.00    -0.302 OA
ATOM     35  H   UNL     1      -2.787  -0.013  -1.752  0.00  0.00    +0.222 HD
ENDBRANCH  32  34
BRANCH  32  36
ATOM     36  O   UNL     1      -4.728   0.633  -1.058  0.00  0.00    -0.302 OA
ATOM     37  H   UNL     1      -5.626   0.937  -0.825  0.00  0.00    +0.222 HD
ENDBRANCH  32  36
ENDBRANCH  31  32
ENDBRANCH  27  31
ENDBRANCH  26  27
ENDBRANCH  22  26
ENDBRANCH  21  22
ENDBRANCH  20  21
ENDBRANCH   4  20
TORSDOF 13
