REMARK  Name = 
REMARK  24 active torsions:
REMARK  status: ('A' for Active; 'I' for Inactive)
REMARK    1  A    between atoms: C_1  and  C_2
REMARK    2  A    between atoms: C_1  and  C_29
REMARK    3  A    between atoms: C_2  and  C_3
REMARK    4  A    between atoms: C_3  and  C_4
REMARK    5  A    between atoms: C_5  and  C_6
REMARK    6  A    between atoms: C_5  and  C_7
REMARK    7  A    between atoms: C_7  and  C_8
REMARK    8  A    between atoms: C_8  and  C_9
REMARK    9  A    between atoms: C_8  and  C_11
REMARK   10  A    between atoms: C_10  and  C_11
REMARK   11  A    between atoms: C_10  and  O_12
REMARK   12  A    between atoms: O_12  and  P_13
REMARK   13  A    between atoms: P_13  and  O_14
REMARK   14  A    between atoms: P_13  and  O_15
REMARK   15  A    between atoms: C_17  and  C_18
REMARK   16  A    between atoms: C_18  and  C_20
REMARK   17  A    between atoms: C_19  and  C_21
REMARK   18  A    between atoms: C_21  and  C_22
REMARK   19  A    between atoms: C_22  and  C_23
REMARK   20  A    between atoms: C_23  and  C_25
REMARK   21  A    between atoms: C_24  and  C_26
REMARK   22  A    between atoms: C_26  and  C_27
REMARK   23  A    between atoms: C_27  and  C_28
REMARK   24  A    between atoms: C_28  and  C_30
REMARK                            x       y       z     vdW  Elec       q    Type
REMARK                         _______ _______ _______ _____ _____    ______ ____
ROOT
ATOM      1  C   UNL     1       6.853  -4.766   5.504  0.00  0.00    +0.034 C 
ENDROOT
BRANCH   1   2
ATOM      2  C   UNL     1       7.377  -5.086   4.109  0.00  0.00    -0.076 C 
ATOM      3  C   UNL     1       7.160  -6.479   3.592  0.00  0.00    +0.039 C 
ATOM      4  C   UNL     1       8.018  -4.190   3.333  0.00  0.00    -0.028 C 
BRANCH   4   5
ATOM      5  C   UNL     1       8.328  -2.802   3.792  0.00  0.00    +0.027 C 
BRANCH   5   6
ATOM      6  C   UNL     1       9.127  -1.974   2.792  0.00  0.00    +0.007 C 
BRANCH   6   7
ATOM      7  C   UNL     1       9.418  -0.568   3.349  0.00  0.00    -0.012 C 
ATOM      8  C   UNL     1      10.246  -0.647   4.644  0.00  0.00    +0.007 C 
BRANCH   7   9
ATOM      9  C   UNL     1      10.098   0.265   2.241  0.00  0.00    +0.032 C 
BRANCH   9  10
ATOM     10  C   UNL     1      10.279   1.726   2.612  0.00  0.00    +0.172 C 
BRANCH  10  11
ATOM     11  O   UNL     1      11.110   1.807   3.752  0.00  0.00    -0.287 OA
BRANCH  11  12
ATOM     12  P   UNL     1      11.342   3.436   4.286  0.00  0.00    +0.472 P 
ATOM     13  O   UNL     1      11.550   4.894   4.764  0.00  0.00    -0.228 OA
BRANCH  12  14
ATOM     14  O   UNL     1      12.887   3.240   3.777  0.00  0.00    -0.303 OA
ATOM     15  H   UNL     1      13.040   3.594   2.888  0.00  0.00    +0.222 HD
ENDBRANCH  12  14
BRANCH  12  16
ATOM     16  O   UNL     1      11.559   2.780   5.770  0.00  0.00    -0.303 OA
ATOM     17  H   UNL     1      10.726   2.662   6.249  0.00  0.00    +0.222 HD
ENDBRANCH  12  16
ENDBRANCH  11  12
ENDBRANCH  10  11
ENDBRANCH   9  10
ENDBRANCH   7   9
ENDBRANCH   6   7
ENDBRANCH   5   6
ENDBRANCH   4   5
ENDBRANCH   1   2
BRANCH   1  18
ATOM     18  C   UNL     1       5.324  -4.867   5.662  0.00  0.00    +0.031 C 
BRANCH  18  20
ATOM     19  C   UNL     1       3.388  -3.373   4.924  0.00  0.00    -0.076 C 
ATOM     20  C   UNL     1       4.572  -3.980   4.708  0.00  0.00    -0.028 C 
ATOM     21  C   UNL     1       2.644  -3.530   6.224  0.00  0.00    +0.039 C 
BRANCH  19  22
ATOM     22  C   UNL     1       2.700  -2.533   3.860  0.00  0.00    +0.034 C 
BRANCH  22  23
ATOM     23  C   UNL     1       3.047  -2.915   2.409  0.00  0.00    +0.031 C 
BRANCH  23  25
ATOM     24  C   UNL     1       2.785  -1.723   0.185  0.00  0.00    -0.076 C 
ATOM     25  C   UNL     1       2.319  -2.076   1.400  0.00  0.00    -0.028 C 
ATOM     26  C   UNL     1       4.129  -2.200  -0.313  0.00  0.00    +0.039 C 
BRANCH  24  27
ATOM     27  C   UNL     1       2.006  -0.860  -0.801  0.00  0.00    +0.034 C 
BRANCH  27  28
ATOM     28  C   UNL     1       0.645  -0.383  -0.278  0.00  0.00    +0.031 C 
BRANCH  28  31
ATOM     29  C   UNL     1      -2.046   0.746   0.434  0.00  0.00    +0.038 C 
ATOM     30  C   UNL     1      -1.364   0.981  -0.890  0.00  0.00    -0.080 C 
ATOM     31  C   UNL     1      -0.155   0.478  -1.213  0.00  0.00    -0.028 C 
ATOM     32  C   UNL     1      -2.127   1.834  -1.861  0.00  0.00    +0.038 C 
ENDBRANCH  28  31
ENDBRANCH  27  28
ENDBRANCH  24  27
ENDBRANCH  23  25
ENDBRANCH  22  23
ENDBRANCH  19  22
ENDBRANCH  18  20
ENDBRANCH   1  18
TORSDOF 18
