REMARK  Name = 
REMARK  11 active torsions:
REMARK  status: ('A' for Active; 'I' for Inactive)
REMARK    1  A    between atoms: N_1  and  C_3
REMARK    2  A    between atoms: C_8  and  O_14
REMARK    3  A    between atoms: C_12  and  C_17
REMARK    4  A    between atoms: C_13  and  O_18
REMARK    5  A    between atoms: C_17  and  O_19
REMARK    6  A    between atoms: O_19  and  P_20
REMARK    7  A    between atoms: P_20  and  O_21
REMARK    8  A    between atoms: P_20  and  O_22
REMARK    9  A    between atoms: O_21  and  P_24
REMARK   10  A    between atoms: P_24  and  O_25
REMARK   11  A    between atoms: P_24  and  O_26
REMARK                            x       y       z     vdW  Elec       q    Type
REMARK                         _______ _______ _______ _____ _____    ______ ____
ROOT
ATOM      1  C   UNL     1       2.014  -2.479  -0.022  0.00  0.00    +0.253 C 
ATOM      2  O   UNL     1       2.802  -2.787   1.166  0.00  0.00    -0.346 OA
ATOM      3  C   UNL     1       2.902  -2.766  -1.232  0.00  0.00    +0.195 C 
ATOM      4  C   UNL     1       4.008  -3.472   0.754  0.00  0.00    +0.178 C 
ATOM      5  C   UNL     1       3.801  -3.870  -0.700  0.00  0.00    +0.178 C 
ENDROOT
BRANCH   1   6
ATOM      6  N   UNL     1       1.540  -1.111   0.029  0.00  0.00    -0.285 N 
ATOM      7  C   UNL     1       0.372  -0.656  -0.519  0.00  0.00    +0.169 A 
ATOM      8  C   UNL     1       2.174  -0.027   0.581  0.00  0.00    +0.203 A 
ATOM      9  C   UNL     1       0.373   0.702  -0.282  0.00  0.00    +0.172 A 
ATOM     10  N   UNL     1      -0.563  -1.398  -1.161  0.00  0.00    -0.218 NA
ATOM     11  N   UNL     1       1.497   1.090   0.399  0.00  0.00    -0.229 NA
ATOM     12  C   UNL     1      -0.756   1.479  -0.769  0.00  0.00    +0.279 A 
ATOM     13  C   UNL     1      -1.556  -0.679  -1.593  0.00  0.00    +0.201 A 
ATOM     14  N   UNL     1      -1.687   0.688  -1.425  0.00  0.00    -0.312 N 
ATOM     15  O   UNL     1      -0.911   2.689  -0.635  0.00  0.00    -0.265 OA
ATOM     16  H   UNL     1      -2.492   1.178  -1.784  0.00  0.00    +0.170 HD
ENDBRANCH   1   6
BRANCH   3  17
ATOM     17  O   UNL     1       2.199  -3.205  -2.392  0.00  0.00    -0.385 OA
ATOM     18  H   UNL     1       2.099  -4.177  -2.322  0.00  0.00    +0.210 HD
ENDBRANCH   3  17
BRANCH   5  19
ATOM     19  O   UNL     1       3.099  -5.125  -0.789  0.00  0.00    -0.386 OA
ATOM     20  H   UNL     1       2.475  -5.213  -0.044  0.00  0.00    +0.210 HD
ENDBRANCH   5  19
BRANCH   4  21
ATOM     21  C   UNL     1       5.220  -2.557   0.982  0.00  0.00    +0.206 C 
BRANCH  21  22
ATOM     22  O   UNL     1       5.359  -2.169   2.346  0.00  0.00    -0.284 OA
BRANCH  22  23
ATOM     23  P   UNL     1       5.499  -3.489   3.456  0.00  0.00    +0.483 P 
ATOM     24  O   UNL     1       5.624  -4.670   4.449  0.00  0.00    -0.227 OA
BRANCH  23  25
ATOM     25  O   UNL     1       4.037  -2.986   4.016  0.00  0.00    -0.302 OA
ATOM     26  H   UNL     1       3.311  -3.068   3.373  0.00  0.00    +0.222 HD
ENDBRANCH  23  25
BRANCH  23  27
ATOM     27  O   UNL     1       6.451  -2.501   4.509  0.00  0.00    -0.186 OA
BRANCH  27  28
ATOM     28  P   UNL     1       8.124  -2.668   4.100  0.00  0.00    +0.481 P 
ATOM     29  O   UNL     1       9.621  -2.817   3.734  0.00  0.00    -0.227 OA
BRANCH  28  30
ATOM     30  O   UNL     1       7.854  -1.427   3.071  0.00  0.00    -0.302 OA
ATOM     31  H   UNL     1       7.778  -0.624   3.622  0.00  0.00    +0.222 HD
ENDBRANCH  28  30
BRANCH  28  32
ATOM     32  O   UNL     1       8.400  -1.687   5.387  0.00  0.00    -0.302 OA
ATOM     33  H   UNL     1       8.315  -2.180   6.224  0.00  0.00    +0.222 HD
ENDBRANCH  28  32
ENDBRANCH  27  28
ENDBRANCH  23  27
ENDBRANCH  22  23
ENDBRANCH  21  22
ENDBRANCH   4  21
TORSDOF 11
