REMARK  Name = 
REMARK  3 active torsions:
REMARK  status: ('A' for Active; 'I' for Inactive)
REMARK    1  A    between atoms: C_1  and  C_2
REMARK    2  A    between atoms: C_1  and  O_3
REMARK    3  A    between atoms: C_2  and  O_5
REMARK                            x       y       z     vdW  Elec       q    Type
REMARK                         _______ _______ _______ _____ _____    ______ ____
ROOT
ATOM      1  C   UNL     1       1.144  -0.038  -0.066  0.00  0.00    +0.330 C 
ATOM      2  O   UNL     1       2.363  -0.030  -0.173  0.00  0.00    -0.248 OA
ENDROOT
BRANCH   1   3
ATOM      3  O   UNL     1       0.414   1.089   0.091  0.00  0.00    -0.479 OA
ATOM      4  H   UNL     1      -0.549   0.938   0.149  0.00  0.00    +0.295 HD
ENDBRANCH   1   3
BRANCH   1   5
ATOM      5  C   UNL     1       0.305  -1.308  -0.135  0.00  0.00    +0.276 C 
BRANCH   5   6
ATOM      6  O   UNL     1       1.085  -2.489  -0.233  0.00  0.00    -0.384 OA
ATOM      7  H   UNL     1       1.953  -2.219  -0.597  0.00  0.00    +0.210 HD
ENDBRANCH   5   6
ENDBRANCH   1   5
TORSDOF 3
