REMARK  Name = 
REMARK  17 active torsions:
REMARK  status: ('A' for Active; 'I' for Inactive)
REMARK    1  A    between atoms: C_1  and  N_2
REMARK    2  A    between atoms: C_4  and  O_9
REMARK    3  A    between atoms: C_7  and  C_13
REMARK    4  A    between atoms: C_8  and  O_14
REMARK    5  A    between atoms: C_13  and  O_16
REMARK    6  A    between atoms: O_16  and  P_18
REMARK    7  A    between atoms: P_18  and  O_19
REMARK    8  A    between atoms: P_18  and  O_20
REMARK    9  A    between atoms: O_19  and  P_22
REMARK   10  A    between atoms: P_22  and  O_23
REMARK   11  A    between atoms: P_22  and  O_24
REMARK   12  A    between atoms: O_23  and  C_26
REMARK   13  A    between atoms: C_28  and  O_31
REMARK   14  A    between atoms: C_29  and  C_33
REMARK   15  A    between atoms: C_30  and  O_34
REMARK   16  A    between atoms: C_32  and  O_35
REMARK   17  A    between atoms: C_33  and  O_36
REMARK                            x       y       z     vdW  Elec       q    Type
REMARK                         _______ _______ _______ _____ _____    ______ ____
ROOT
ATOM      1  P   UNL     1       2.555  -2.232  -3.870  0.00  0.00    +0.483 P 
ATOM      2  O   UNL     1       3.245  -2.331  -5.252  0.00  0.00    -0.227 OA
ENDROOT
BRANCH   1   3
ATOM      3  O   UNL     1       1.833  -3.702  -3.942  0.00  0.00    -0.302 OA
ATOM      4  H   UNL     1       0.873  -3.650  -4.067  0.00  0.00    +0.222 HD
ENDBRANCH   1   3
BRANCH   1   5
ATOM      5  O   UNL     1       3.895  -2.688  -3.086  0.00  0.00    -0.186 OA
BRANCH   5   6
ATOM      6  P   UNL     1       5.158  -1.729  -3.211  0.00  0.00    +0.486 P 
ATOM      7  O   UNL     1       4.844  -0.282  -2.973  0.00  0.00    -0.227 OA
BRANCH   6   8
ATOM      8  O   UNL     1       5.899  -2.022  -4.586  0.00  0.00    -0.302 OA
ATOM      9  H   UNL     1       5.482  -1.551  -5.334  0.00  0.00    +0.222 HD
ENDBRANCH   6   8
BRANCH   6  10
ATOM     10  O   UNL     1       6.108  -2.424  -2.151  0.00  0.00    -0.254 OA
BRANCH  10  11
ATOM     11  C   UNL     1       7.390  -1.888  -1.933  0.00  0.00    +0.293 C 
ATOM     12  O   UNL     1       7.308  -0.551  -1.441  0.00  0.00    -0.340 OA
ATOM     13  C   UNL     1       8.034  -2.815  -0.894  0.00  0.00    +0.202 C 
ATOM     14  C   UNL     1       6.429  -0.428  -0.302  0.00  0.00    +0.178 C 
ATOM     15  C   UNL     1       7.139  -2.769   0.374  0.00  0.00    +0.179 C 
ATOM     16  C   UNL     1       6.955  -1.311   0.837  0.00  0.00    +0.177 C 
BRANCH  16  17
ATOM     17  O   UNL     1       8.229  -0.830   1.293  0.00  0.00    -0.386 OA
ATOM     18  H   UNL     1       8.755  -0.586   0.507  0.00  0.00    +0.210 HD
ENDBRANCH  16  17
BRANCH  15  19
ATOM     19  O   UNL     1       7.699  -3.559   1.416  0.00  0.00    -0.386 OA
ATOM     20  H   UNL     1       8.426  -3.030   1.801  0.00  0.00    +0.210 HD
ENDBRANCH  15  19
BRANCH  13  21
ATOM     21  O   UNL     1       8.156  -4.147  -1.410  0.00  0.00    -0.384 OA
ATOM     22  H   UNL     1       7.260  -4.526  -1.468  0.00  0.00    +0.210 HD
ENDBRANCH  13  21
BRANCH  14  23
ATOM     23  C   UNL     1       6.315   1.062   0.057  0.00  0.00    +0.190 C 
BRANCH  23  24
ATOM     24  O   UNL     1       5.730   1.835  -0.999  0.00  0.00    -0.392 OA
ATOM     25  H   UNL     1       5.474   1.242  -1.734  0.00  0.00    +0.210 HD
ENDBRANCH  23  24
ENDBRANCH  14  23
ENDBRANCH  10  11
ENDBRANCH   6  10
ENDBRANCH   5   6
ENDBRANCH   1   5
BRANCH   1  26
ATOM     26  O   UNL     1       1.784  -2.123  -2.325  0.00  0.00    -0.284 OA
BRANCH  26  27
ATOM     27  C   UNL     1       1.911  -0.843  -1.709  0.00  0.00    +0.206 C 
BRANCH  27  31
ATOM     28  C   UNL     1      -0.559  -2.268   0.102  0.00  0.00    +0.255 C 
ATOM     29  O   UNL     1      -0.210  -1.020  -0.547  0.00  0.00    -0.346 OA
ATOM     30  C   UNL     1       0.757  -2.972   0.478  0.00  0.00    +0.195 C 
ATOM     31  C   UNL     1       1.198  -0.774  -0.358  0.00  0.00    +0.178 C 
ATOM     32  C   UNL     1       1.697  -1.792   0.663  0.00  0.00    +0.178 C 
BRANCH  28  33
ATOM     33  N   UNL     1      -1.442  -3.050  -0.755  0.00  0.00    -0.271 N 
ATOM     34  C   UNL     1      -2.359  -3.872  -0.133  0.00  0.00    +0.331 A 
ATOM     35  C   UNL     1      -1.355  -2.986  -2.133  0.00  0.00    +0.098 A 
ATOM     36  N   UNL     1      -3.173  -4.605  -0.977  0.00  0.00    -0.275 N 
ATOM     37  O   UNL     1      -2.511  -3.962   1.089  0.00  0.00    -0.246 OA
ATOM     38  C   UNL     1      -2.165  -3.670  -2.938  0.00  0.00    +0.088 A 
ATOM     39  C   UNL     1      -3.198  -4.514  -2.334  0.00  0.00    +0.254 A 
ATOM     40  O   UNL     1      -4.040  -5.076  -3.030  0.00  0.00    -0.268 OA
ATOM     41  H   UNL     1      -3.884  -5.167  -0.535  0.00  0.00    +0.173 HD
ENDBRANCH  28  33
BRANCH  32  42
ATOM     42  O   UNL     1       1.560  -1.281   2.004  0.00  0.00    -0.386 OA
ATOM     43  H   UNL     1       0.796  -0.676   2.048  0.00  0.00    +0.210 HD
ENDBRANCH  32  42
BRANCH  30  44
ATOM     44  O   UNL     1       0.679  -3.762   1.661  0.00  0.00    -0.385 OA
ATOM     45  H   UNL     1       0.786  -3.151   2.419  0.00  0.00    +0.210 HD
ENDBRANCH  30  44
ENDBRANCH  27  31
ENDBRANCH  26  27
ENDBRANCH   1  26
TORSDOF 17
