REMARK  Name = 
REMARK  3 active torsions:
REMARK  status: ('A' for Active; 'I' for Inactive)
REMARK    1  A    between atoms: C_1  and  C_2
REMARK    2  A    between atoms: C_2  and  C_3
REMARK    3  A    between atoms: C_3  and  O_4
REMARK                            x       y       z     vdW  Elec       q    Type
REMARK                         _______ _______ _______ _____ _____    ______ ____
ROOT
ATOM      1  C   UNL     1       3.231  -0.928   0.968  0.00  0.00    +0.372 C 
ATOM      2  O   UNL     1       2.634  -1.621   1.765  0.00  0.00    -0.242 OA
ENDROOT
BRANCH   1   4
ATOM      3  C   UNL     1       1.048  -0.008  -0.090  0.00  0.00    +0.099 C 
ATOM      4  C   UNL     1       2.546  -0.031  -0.063  0.00  0.00    +0.236 C 
ATOM      5  O   UNL     1       3.271   0.620  -0.813  0.00  0.00    -0.285 OA
ENDBRANCH   1   4
BRANCH   1   6
ATOM      6  O   UNL     1       4.569  -0.833   0.855  0.00  0.00    -0.475 OA
ATOM      7  H   UNL     1       4.788  -0.201   0.128  0.00  0.00    +0.295 HD
ENDBRANCH   1   6
TORSDOF 2
