REMARK  Name = 
REMARK  3 active torsions:
REMARK  status: ('A' for Active; 'I' for Inactive)
REMARK    1  A    between atoms: C_1  and  C_2
REMARK    2  A    between atoms: C_1  and  O_3
REMARK    3  A    between atoms: C_2  and  O_5
REMARK                            x       y       z     vdW  Elec       q    Type
REMARK                         _______ _______ _______ _____ _____    ______ ____
ROOT
ATOM      1  C   UNL     1       1.036  -0.017  -0.124  0.00  0.00    +0.415 C 
ATOM      2  O   UNL     1       2.252  -0.040  -0.200  0.00  0.00    -0.238 OA
ENDROOT
BRANCH   1   3
ATOM      3  C   UNL     1       0.168  -0.398  -1.334  0.00  0.00    +0.415 C 
ATOM      4  O   UNL     1      -1.048  -0.375  -1.258  0.00  0.00    -0.238 OA
BRANCH   3   5
ATOM      5  O   UNL     1       0.907  -0.732  -2.402  0.00  0.00    -0.473 OA
ATOM      6  H   UNL     1       1.865  -0.661  -2.179  0.00  0.00    +0.296 HD
ENDBRANCH   3   5
ENDBRANCH   1   3
BRANCH   1   7
ATOM      7  O   UNL     1       0.297   0.318   0.944  0.00  0.00    -0.473 OA
ATOM      8  H   UNL     1      -0.661   0.248   0.721  0.00  0.00    +0.296 HD
ENDBRANCH   1   7
TORSDOF 3
