REMARK  Name = 
REMARK  10 active torsions:
REMARK  status: ('A' for Active; 'I' for Inactive)
REMARK    1  A    between atoms: N_1  and  C_3
REMARK    2  A    between atoms: C_8  and  O_14
REMARK    3  A    between atoms: C_12  and  C_17
REMARK    4  A    between atoms: C_13  and  O_18
REMARK    5  A    between atoms: C_17  and  O_19
REMARK    6  A    between atoms: O_19  and  P_20
REMARK    7  A    between atoms: P_20  and  O_21
REMARK    8  A    between atoms: P_20  and  O_22
REMARK    9  A    between atoms: O_21  and  S_24
REMARK   10  A    between atoms: S_24  and  O_25
REMARK                            x       y       z     vdW  Elec       q    Type
REMARK                         _______ _______ _______ _____ _____    ______ ____
ROOT
ATOM      1  C   UNL     1       2.090   2.433  -0.036  0.00  0.00    +0.253 C 
ATOM      2  O   UNL     1       1.772   3.251   1.115  0.00  0.00    -0.346 OA
ATOM      3  C   UNL     1       1.535   3.163  -1.260  0.00  0.00    +0.195 C 
ATOM      4  C   UNL     1       1.335   4.555   0.674  0.00  0.00    +0.178 C 
ATOM      5  C   UNL     1       1.644   4.616  -0.821  0.00  0.00    +0.178 C 
ENDROOT
BRANCH   1   6
ATOM      6  N   UNL     1       1.546   1.106   0.156  0.00  0.00    -0.286 N 
ATOM      7  C   UNL     1       2.084  -0.044  -0.353  0.00  0.00    +0.167 A 
ATOM      8  C   UNL     1       0.455   0.754   0.905  0.00  0.00    +0.203 A 
ATOM      9  C   UNL     1       1.276  -1.060   0.133  0.00  0.00    +0.147 A 
ATOM     10  N   UNL     1       3.168  -0.171  -1.134  0.00  0.00    -0.216 NA
ATOM     11  N   UNL     1       0.247  -0.547   0.894  0.00  0.00    -0.231 NA
ATOM     12  C   UNL     1       1.638  -2.373  -0.211  0.00  0.00    +0.147 A 
ATOM     13  C   UNL     1       3.402  -1.468  -1.419  0.00  0.00    +0.225 A 
ATOM     14  N   UNL     1       2.718  -2.558  -1.005  0.00  0.00    -0.219 NA
ATOM     15  N   UNL     1       0.947  -3.478   0.229  0.00  0.00    -0.341 N 
ATOM     16  H   UNL     1       0.150  -3.346   0.834  0.00  0.00    +0.144 HD
ATOM     17  H   UNL     1       1.271  -4.390  -0.050  0.00  0.00    +0.144 HD
ENDBRANCH   1   6
BRANCH   3  18
ATOM     18  O   UNL     1       2.267   2.938  -2.460  0.00  0.00    -0.385 OA
ATOM     19  H   UNL     1       3.021   3.563  -2.455  0.00  0.00    +0.210 HD
ENDBRANCH   3  18
BRANCH   5  20
ATOM     20  O   UNL     1       2.989   5.065  -1.064  0.00  0.00    -0.386 OA
ATOM     21  H   UNL     1       3.546   4.853  -0.291  0.00  0.00    +0.210 HD
ENDBRANCH   5  20
BRANCH   4  22
ATOM     22  C   UNL     1      -0.158   4.730   0.970  0.00  0.00    +0.206 C 
BRANCH  22  23
ATOM     23  O   UNL     1      -0.397   4.761   2.380  0.00  0.00    -0.283 OA
BRANCH  23  24
ATOM     24  P   UNL     1      -2.058   5.052   2.766  0.00  0.00    +0.498 P 
ATOM     25  O   UNL     1      -3.545   5.313   3.111  0.00  0.00    -0.225 OA
BRANCH  24  26
ATOM     26  O   UNL     1      -1.651   6.650   2.721  0.00  0.00    -0.301 OA
ATOM     27  H   UNL     1      -1.828   7.082   1.871  0.00  0.00    +0.222 HD
ENDBRANCH  24  26
BRANCH  24  28
ATOM     28  O   UNL     1      -1.620   4.794   4.318  0.00  0.00    -0.109 OA
BRANCH  28  29
ATOM     29  S   UNL     1      -1.881   3.226   4.580  0.00  0.00    +0.216 S 
ATOM     30  O   UNL     1      -3.295   2.964   4.670  0.00  0.00    -0.118 OA
ATOM     31  O   UNL     1      -1.030   2.443   3.707  0.00  0.00    -0.118 OA
BRANCH  29  32
ATOM     32  O   UNL     1      -1.331   3.051   6.086  0.00  0.00    -0.231 OA
ATOM     33  H   UNL     1      -1.989   3.449   6.691  0.00  0.00    +0.247 HD
ENDBRANCH  29  32
ENDBRANCH  28  29
ENDBRANCH  24  28
ENDBRANCH  23  24
ENDBRANCH  22  23
ENDBRANCH   4  22
TORSDOF 10
