MODEL 1
REMARK VINA RESULT:    -4.902      0.000      0.000
REMARK INTER + INTRA:          -5.735
REMARK INTER:                  -5.475
REMARK INTRA:                  -0.260
REMARK UNBOUND:                -0.260
REMARK  Name = 5281708
REMARK  3 active torsions:
REMARK  status: ('A' for Active; 'I' for Inactive)
REMARK    1  A    between atoms: O_3  and  C_15
REMARK    2  A    between atoms: O_4  and  C_19
REMARK    3  A    between atoms: C_6  and  C_9
REMARK                            x       y       z     vdW  Elec       q    Type
REMARK                         _______ _______ _______ _____ _____    ______ ____
ROOT
ATOM      1  O   UNL     1      31.923  -7.576  29.420  0.00  0.00    +0.000 OA
ATOM      2  O   UNL     1      30.983  -5.791  32.969  0.00  0.00    +0.000 OA
ATOM      3  C   UNL     1      32.258  -7.401  31.820  0.00  0.00    +0.000 A 
ATOM      4  C   UNL     1      30.611  -5.927  30.620  0.00  0.00    +0.000 A 
ATOM      5  C   UNL     1      32.548  -7.967  30.579  0.00  0.00    +0.000 A 
ATOM      6  C   UNL     1      31.254  -6.322  31.899  0.00  0.00    +0.000 A 
ATOM      7  C   UNL     1      30.987  -6.574  29.506  0.00  0.00    +0.000 A 
ATOM      8  C   UNL     1      32.915  -7.849  32.972  0.00  0.00    +0.000 A 
ATOM      9  C   UNL     1      33.508  -8.973  30.480  0.00  0.00    +0.000 A 
ATOM     10  C   UNL     1      34.166  -9.407  31.626  0.00  0.00    +0.000 A 
ATOM     11  C   UNL     1      33.876  -8.859  32.874  0.00  0.00    +0.000 A 
ENDROOT
BRANCH   4  12
ATOM     12  C   UNL     1      29.612  -4.856  30.552  0.00  0.00    +0.000 A 
ATOM     13  C   UNL     1      28.284  -5.091  30.936  0.00  0.00    +0.000 A 
ATOM     14  C   UNL     1      29.978  -3.587  30.084  0.00  0.00    +0.000 A 
ATOM     15  C   UNL     1      27.335  -4.067  30.859  0.00  0.00    +0.000 A 
ATOM     16  C   UNL     1      29.029  -2.566  30.006  0.00  0.00    +0.000 A 
ATOM     17  C   UNL     1      27.717  -2.812  30.395  0.00  0.00    +0.000 A 
BRANCH  17  18
ATOM     18  O   UNL     1      26.827  -1.784  30.308  0.00  0.00    +0.000 OA
ATOM     19  H   UNL     1      27.143  -1.156  29.638  0.00  0.00    +0.000 HD
ENDBRANCH  17  18
ENDBRANCH   4  12
BRANCH  10  20
ATOM     20  O   UNL     1      35.104 -10.387  31.485  0.00  0.00    +0.000 OA
ATOM     21  H   UNL     1      35.219 -10.841  32.337  0.00  0.00    +0.000 HD
ENDBRANCH  10  20
TORSDOF 3
ENDMDL
MODEL 2
REMARK VINA RESULT:    -4.678      1.847      7.317
REMARK INTER + INTRA:          -5.485
REMARK INTER:                  -5.254
REMARK INTRA:                  -0.231
REMARK UNBOUND:                -0.260
REMARK  Name = 5281708
REMARK  3 active torsions:
REMARK  status: ('A' for Active; 'I' for Inactive)
REMARK    1  A    between atoms: O_3  and  C_15
REMARK    2  A    between atoms: O_4  and  C_19
REMARK    3  A    between atoms: C_6  and  C_9
REMARK                            x       y       z     vdW  Elec       q    Type
REMARK                         _______ _______ _______ _____ _____    ______ ____
ROOT
ATOM      1  O   UNL     1      28.542  -3.064  30.748  0.00  0.00    +0.000 OA
ATOM      2  O   UNL     1      28.342  -6.906  29.382  0.00  0.00    +0.000 OA
ATOM      3  C   UNL     1      27.279  -4.824  29.648  0.00  0.00    +0.000 A 
ATOM      4  C   UNL     1      29.621  -5.219  30.475  0.00  0.00    +0.000 A 
ATOM      5  C   UNL     1      27.408  -3.519  30.122  0.00  0.00    +0.000 A 
ATOM      6  C   UNL     1      28.413  -5.757  29.800  0.00  0.00    +0.000 A 
ATOM      7  C   UNL     1      29.589  -3.943  30.889  0.00  0.00    +0.000 A 
ATOM      8  C   UNL     1      26.093  -5.237  29.030  0.00  0.00    +0.000 A 
ATOM      9  C   UNL     1      26.356  -2.615  29.970  0.00  0.00    +0.000 A 
ATOM     10  C   UNL     1      25.183  -3.029  29.347  0.00  0.00    +0.000 A 
ATOM     11  C   UNL     1      25.037  -4.333  28.879  0.00  0.00    +0.000 A 
ENDROOT
BRANCH   4  12
ATOM     12  C   UNL     1      30.825  -6.032  30.673  0.00  0.00    +0.000 A 
ATOM     13  C   UNL     1      31.663  -6.344  29.593  0.00  0.00    +0.000 A 
ATOM     14  C   UNL     1      31.139  -6.518  31.949  0.00  0.00    +0.000 A 
ATOM     15  C   UNL     1      32.805  -7.127  29.787  0.00  0.00    +0.000 A 
ATOM     16  C   UNL     1      32.279  -7.301  32.142  0.00  0.00    +0.000 A 
ATOM     17  C   UNL     1      33.102  -7.598  31.063  0.00  0.00    +0.000 A 
BRANCH  17  18
ATOM     18  O   UNL     1      34.207  -8.361  31.300  0.00  0.00    +0.000 OA
ATOM     19  H   UNL     1      34.041  -8.912  32.082  0.00  0.00    +0.000 HD
ENDBRANCH  17  18
ENDBRANCH   4  12
BRANCH  10  20
ATOM     20  O   UNL     1      24.183  -2.113  29.210  0.00  0.00    +0.000 OA
ATOM     21  H   UNL     1      23.451  -2.515  28.712  0.00  0.00    +0.000 HD
ENDBRANCH  10  20
TORSDOF 3
ENDMDL
MODEL 3
REMARK VINA RESULT:    -4.632      1.890      7.181
REMARK INTER + INTRA:          -5.434
REMARK INTER:                  -5.518
REMARK INTRA:                   0.084
REMARK UNBOUND:                -0.260
REMARK  Name = 5281708
REMARK  3 active torsions:
REMARK  status: ('A' for Active; 'I' for Inactive)
REMARK    1  A    between atoms: O_3  and  C_15
REMARK    2  A    between atoms: O_4  and  C_19
REMARK    3  A    between atoms: C_6  and  C_9
REMARK                            x       y       z     vdW  Elec       q    Type
REMARK                         _______ _______ _______ _____ _____    ______ ____
ROOT
ATOM      1  O   UNL     1      29.940  -4.368  31.220  0.00  0.00    +0.000 OA
ATOM      2  O   UNL     1      28.166  -7.261  28.951  0.00  0.00    +0.000 OA
ATOM      3  C   UNL     1      28.084  -5.076  29.821  0.00  0.00    +0.000 A 
ATOM      4  C   UNL     1      30.005  -6.620  30.323  0.00  0.00    +0.000 A 
ATOM      5  C   UNL     1      28.741  -4.122  30.597  0.00  0.00    +0.000 A 
ATOM      6  C   UNL     1      28.706  -6.403  29.638  0.00  0.00    +0.000 A 
ATOM      7  C   UNL     1      30.506  -5.608  31.047  0.00  0.00    +0.000 A 
ATOM      8  C   UNL     1      26.856  -4.775  29.221  0.00  0.00    +0.000 A 
ATOM      9  C   UNL     1      28.181  -2.856  30.766  0.00  0.00    +0.000 A 
ATOM     10  C   UNL     1      26.965  -2.559  30.159  0.00  0.00    +0.000 A 
ATOM     11  C   UNL     1      26.292  -3.508  29.392  0.00  0.00    +0.000 A 
ENDROOT
BRANCH   4  12
ATOM     12  C   UNL     1      30.741  -7.884  30.209  0.00  0.00    +0.000 A 
ATOM     13  C   UNL     1      30.836  -8.546  28.977  0.00  0.00    +0.000 A 
ATOM     14  C   UNL     1      31.342  -8.448  31.341  0.00  0.00    +0.000 A 
ATOM     15  C   UNL     1      31.531  -9.755  28.877  0.00  0.00    +0.000 A 
ATOM     16  C   UNL     1      32.035  -9.656  31.241  0.00  0.00    +0.000 A 
ATOM     17  C   UNL     1      32.125 -10.299  30.012  0.00  0.00    +0.000 A 
BRANCH  17  18
ATOM     18  O   UNL     1      32.817 -11.473  29.960  0.00  0.00    +0.000 OA
ATOM     19  H   UNL     1      32.205 -12.182  29.701  0.00  0.00    +0.000 HD
ENDBRANCH  17  18
ENDBRANCH   4  12
BRANCH  10  20
ATOM     20  O   UNL     1      26.456  -1.307  30.342  0.00  0.00    +0.000 OA
ATOM     21  H   UNL     1      26.163  -0.956  29.484  0.00  0.00    +0.000 HD
ENDBRANCH  10  20
TORSDOF 3
ENDMDL
MODEL 4
REMARK VINA RESULT:    -4.359     33.229     35.752
REMARK INTER + INTRA:          -5.129
REMARK INTER:                  -4.895
REMARK INTRA:                  -0.234
REMARK UNBOUND:                -0.260
REMARK  Name = 5281708
REMARK  3 active torsions:
REMARK  status: ('A' for Active; 'I' for Inactive)
REMARK    1  A    between atoms: O_3  and  C_15
REMARK    2  A    between atoms: O_4  and  C_19
REMARK    3  A    between atoms: C_6  and  C_9
REMARK                            x       y       z     vdW  Elec       q    Type
REMARK                         _______ _______ _______ _____ _____    ______ ____
ROOT
ATOM      1  O   UNL     1       9.567   2.647  55.091  0.00  0.00    +0.000 OA
ATOM      2  O   UNL     1       7.542   2.596  58.635  0.00  0.00    +0.000 OA
ATOM      3  C   UNL     1       8.914   1.453  57.103  0.00  0.00    +0.000 A 
ATOM      4  C   UNL     1       8.146   3.809  56.676  0.00  0.00    +0.000 A 
ATOM      5  C   UNL     1       9.596   1.530  55.890  0.00  0.00    +0.000 A 
ATOM      6  C   UNL     1       8.142   2.622  57.568  0.00  0.00    +0.000 A 
ATOM      7  C   UNL     1       8.842   3.728  55.531  0.00  0.00    +0.000 A 
ATOM      8  C   UNL     1       8.967   0.283  57.870  0.00  0.00    +0.000 A 
ATOM      9  C   UNL     1      10.348   0.444  55.443  0.00  0.00    +0.000 A 
ATOM     10  C   UNL     1      10.406  -0.712  56.214  0.00  0.00    +0.000 A 
ATOM     11  C   UNL     1       9.718  -0.807  57.422  0.00  0.00    +0.000 A 
ENDROOT
BRANCH   4  12
ATOM     12  C   UNL     1       7.438   5.045  57.025  0.00  0.00    +0.000 A 
ATOM     13  C   UNL     1       6.248   5.395  56.373  0.00  0.00    +0.000 A 
ATOM     14  C   UNL     1       7.959   5.896  58.009  0.00  0.00    +0.000 A 
ATOM     15  C   UNL     1       5.582   6.579  56.704  0.00  0.00    +0.000 A 
ATOM     16  C   UNL     1       7.295   7.079  58.338  0.00  0.00    +0.000 A 
ATOM     17  C   UNL     1       6.114   7.411  57.686  0.00  0.00    +0.000 A 
BRANCH  17  18
ATOM     18  O   UNL     1       5.497   8.573  58.045  0.00  0.00    +0.000 OA
ATOM     19  H   UNL     1       4.556   8.510  57.808  0.00  0.00    +0.000 HD
ENDBRANCH  17  18
ENDBRANCH   4  12
BRANCH  10  20
ATOM     20  O   UNL     1      11.159  -1.748  55.746  0.00  0.00    +0.000 OA
ATOM     21  H   UNL     1      10.870  -1.966  54.843  0.00  0.00    +0.000 HD
ENDBRANCH  10  20
TORSDOF 3
ENDMDL
MODEL 5
REMARK VINA RESULT:    -4.307      2.345      7.197
REMARK INTER + INTRA:          -5.070
REMARK INTER:                  -4.870
REMARK INTRA:                  -0.200
REMARK UNBOUND:                -0.260
REMARK  Name = 5281708
REMARK  3 active torsions:
REMARK  status: ('A' for Active; 'I' for Inactive)
REMARK    1  A    between atoms: O_3  and  C_15
REMARK    2  A    between atoms: O_4  and  C_19
REMARK    3  A    between atoms: C_6  and  C_9
REMARK                            x       y       z     vdW  Elec       q    Type
REMARK                         _______ _______ _______ _____ _____    ______ ____
ROOT
ATOM      1  O   UNL     1      31.288  -5.903  32.991  0.00  0.00    +0.000 OA
ATOM      2  O   UNL     1      34.045  -7.518  30.451  0.00  0.00    +0.000 OA
ATOM      3  C   UNL     1      31.931  -6.524  30.733  0.00  0.00    +0.000 A 
ATOM      4  C   UNL     1      33.460  -6.937  32.686  0.00  0.00    +0.000 A 
ATOM      5  C   UNL     1      31.032  -5.972  31.644  0.00  0.00    +0.000 A 
ATOM      6  C   UNL     1      33.224  -7.040  31.224  0.00  0.00    +0.000 A 
ATOM      7  C   UNL     1      32.492  -6.391  33.438  0.00  0.00    +0.000 A 
ATOM      8  C   UNL     1      31.612  -6.580  29.371  0.00  0.00    +0.000 A 
ATOM      9  C   UNL     1      29.814  -5.459  31.198  0.00  0.00    +0.000 A 
ATOM     10  C   UNL     1      29.506  -5.509  29.842  0.00  0.00    +0.000 A 
ATOM     11  C   UNL     1      30.390  -6.070  28.923  0.00  0.00    +0.000 A 
ENDROOT
BRANCH   4  12
ATOM     12  C   UNL     1      34.709  -7.393  33.304  0.00  0.00    +0.000 A 
ATOM     13  C   UNL     1      35.021  -8.758  33.364  0.00  0.00    +0.000 A 
ATOM     14  C   UNL     1      35.597  -6.460  33.857  0.00  0.00    +0.000 A 
ATOM     15  C   UNL     1      36.209  -9.186  33.964  0.00  0.00    +0.000 A 
ATOM     16  C   UNL     1      36.783  -6.888  34.457  0.00  0.00    +0.000 A 
ATOM     17  C   UNL     1      37.080  -8.245  34.505  0.00  0.00    +0.000 A 
BRANCH  17  18
ATOM     18  O   UNL     1      38.253  -8.616  35.094  0.00  0.00    +0.000 OA
ATOM     19  H   UNL     1      38.986  -8.373  34.505  0.00  0.00    +0.000 HD
ENDBRANCH  17  18
ENDBRANCH   4  12
BRANCH  10  20
ATOM     20  O   UNL     1      28.309  -4.990  29.446  0.00  0.00    +0.000 OA
ATOM     21  H   UNL     1      27.678  -5.718  29.309  0.00  0.00    +0.000 HD
ENDBRANCH  10  20
TORSDOF 3
ENDMDL
