REMARK  Name = 5281708
REMARK  3 active torsions:
REMARK  status: ('A' for Active; 'I' for Inactive)
REMARK    1  A    between atoms: O_3  and  C_15
REMARK    2  A    between atoms: O_4  and  C_19
REMARK    3  A    between atoms: C_6  and  C_9
REMARK                            x       y       z     vdW  Elec       q    Type
REMARK                         _______ _______ _______ _____ _____    ______ ____
ROOT
ATOM      1  O   UNL     1      -0.742  -1.893  -0.007  0.00  0.00    +0.000 OA
ATOM      2  O   UNL     1      -2.322   1.871   0.014  0.00  0.00    +0.000 OA
ATOM      3  C   UNL     1      -0.401   0.512   0.022  0.00  0.00    +0.000 A 
ATOM      4  C   UNL     1      -2.712  -0.479  -0.006  0.00  0.00    +0.000 A 
ATOM      5  C   UNL     1       0.083  -0.795   0.002  0.00  0.00    +0.000 A 
ATOM      6  C   UNL     1      -1.860   0.737   0.012  0.00  0.00    +0.000 A 
ATOM      7  C   UNL     1      -2.098  -1.672  -0.011  0.00  0.00    +0.000 A 
ATOM      8  C   UNL     1       0.487   1.594   0.045  0.00  0.00    +0.000 A 
ATOM      9  C   UNL     1       1.458  -1.029  -0.010  0.00  0.00    +0.000 A 
ATOM     10  C   UNL     1       2.336   0.050   0.003  0.00  0.00    +0.000 A 
ATOM     11  C   UNL     1       1.865   1.361   0.036  0.00  0.00    +0.000 A 
ENDROOT
BRANCH   4  12
ATOM     12  C   UNL     1      -4.176  -0.400  -0.038  0.00  0.00    +0.000 A 
ATOM     13  C   UNL     1      -4.917  -0.382   1.152  0.00  0.00    +0.000 A 
ATOM     14  C   UNL     1      -4.848  -0.358  -1.267  0.00  0.00    +0.000 A 
ATOM     15  C   UNL     1      -6.313  -0.316   1.114  0.00  0.00    +0.000 A 
ATOM     16  C   UNL     1      -6.242  -0.294  -1.304  0.00  0.00    +0.000 A 
ATOM     17  C   UNL     1      -6.963  -0.272  -0.116  0.00  0.00    +0.000 A 
BRANCH  17  18
ATOM     18  O   UNL     1      -8.322  -0.202  -0.201  0.00  0.00    +0.000 OA
ATOM     19  H   UNL     1      -8.685  -0.127   0.697  0.00  0.00    +0.000 HD
ENDBRANCH  17  18
ENDBRANCH   4  12
BRANCH  10  20
ATOM     20  O   UNL     1       3.672  -0.221  -0.018  0.00  0.00    +0.000 OA
ATOM     21  H   UNL     1       4.165   0.617  -0.035  0.00  0.00    +0.000 HD
ENDBRANCH  10  20
TORSDOF 3
