REMARK  Name = 
REMARK  4 active torsions:
REMARK  status: ('A' for Active; 'I' for Inactive)
REMARK    1  A    between atoms: C_1  and  C_2
REMARK    2  A    between atoms: C_1  and  C_3
REMARK    3  A    between atoms: C_1  and  O_4
REMARK    4  A    between atoms: C_2  and  O_5
REMARK                            x       y       z     vdW  Elec       q    Type
REMARK                         _______ _______ _______ _____ _____    ______ ____
ROOT
ATOM      1  C   UNL     1       1.030   0.002  -0.092  0.00  0.00    +0.219 C 
ATOM      2  C   UNL     1       0.656  -0.216   1.362  0.00  0.00    +0.049 C 
ENDROOT
BRANCH   1   3
ATOM      3  C   UNL     1       0.447   1.298  -0.657  0.00  0.00    +0.333 C 
ATOM      4  O   UNL     1      -0.605   1.814  -0.322  0.00  0.00    -0.248 OA
BRANCH   3   5
ATOM      5  O   UNL     1       1.261   1.821  -1.614  0.00  0.00    -0.479 OA
ATOM      6  H   UNL     1       2.052   1.240  -1.700  0.00  0.00    +0.295 HD
ENDBRANCH   3   5
ENDBRANCH   1   3
BRANCH   1   7
ATOM      7  O   UNL     1       2.458   0.059  -0.237  0.00  0.00    -0.381 OA
ATOM      8  H   UNL     1       2.798   0.631   0.476  0.00  0.00    +0.210 HD
ENDBRANCH   1   7
TORSDOF 3
