REMARK  Name = 
REMARK  6 active torsions:
REMARK  status: ('A' for Active; 'I' for Inactive)
REMARK    1  A    between atoms: C_1  and  C_4
REMARK    2  A    between atoms: C_2  and  O_6
REMARK    3  A    between atoms: C_4  and  O_8
REMARK    4  A    between atoms: C_5  and  O_10
REMARK    5  A    between atoms: C_7  and  O_11
REMARK    6  A    between atoms: C_9  and  O_12
REMARK                            x       y       z     vdW  Elec       q    Type
REMARK                         _______ _______ _______ _____ _____    ______ ____
ROOT
ATOM      1  C   UNL     1      -0.547  -1.809   0.223  0.00  0.00    +0.178 C 
ATOM      2  C   UNL     1      -1.432  -0.650  -0.246  0.00  0.00    +0.177 C 
ATOM      3  O   UNL     1       0.795  -1.642  -0.258  0.00  0.00    -0.341 OA
ATOM      4  C   UNL     1      -0.826   0.699   0.179  0.00  0.00    +0.179 C 
ATOM      5  C   UNL     1       1.415  -0.476   0.263  0.00  0.00    +0.279 C 
ATOM      6  C   UNL     1       0.668   0.805  -0.169  0.00  0.00    +0.201 C 
ENDROOT
BRANCH   2   7
ATOM      7  O   UNL     1      -2.757  -0.805   0.272  0.00  0.00    -0.386 OA
ATOM      8  H   UNL     1      -2.839  -0.295   1.098  0.00  0.00    +0.210 HD
ENDBRANCH   2   7
BRANCH   4   9
ATOM      9  O   UNL     1      -1.567   1.773  -0.421  0.00  0.00    -0.386 OA
ATOM     10  H   UNL     1      -1.448   1.737  -1.387  0.00  0.00    +0.210 HD
ENDBRANCH   4   9
BRANCH   5  11
ATOM     11  O   UNL     1       2.758  -0.474  -0.192  0.00  0.00    -0.365 OA
ATOM     12  H   UNL     1       2.737  -0.227  -1.131  0.00  0.00    +0.213 HD
ENDBRANCH   5  11
BRANCH   6  13
ATOM     13  O   UNL     1       1.241   1.970   0.445  0.00  0.00    -0.384 OA
ATOM     14  H   UNL     1       1.064   1.947   1.399  0.00  0.00    +0.210 HD
ENDBRANCH   6  13
BRANCH   1  15
ATOM     15  C   UNL     1      -1.057  -3.152  -0.312  0.00  0.00    +0.190 C 
BRANCH  15  16
ATOM     16  O   UNL     1      -0.233  -4.205   0.192  0.00  0.00    -0.392 OA
ATOM     17  H   UNL     1       0.688  -3.927   0.024  0.00  0.00    +0.210 HD
ENDBRANCH  15  16
ENDBRANCH   1  15
TORSDOF 6
