REMARK  Name = 
REMARK  4 active torsions:
REMARK  status: ('A' for Active; 'I' for Inactive)
REMARK    1  A    between atoms: C_1  and  C_2
REMARK    2  A    between atoms: C_1  and  C_3
REMARK    3  A    between atoms: C_2  and  O_4
REMARK    4  A    between atoms: C_3  and  C_6
REMARK                            x       y       z     vdW  Elec       q    Type
REMARK                         _______ _______ _______ _____ _____    ______ ____
ROOT
ATOM      1  C   UNL     1       0.508  -0.995   1.088  0.00  0.00    +0.305 C 
ATOM      2  O   UNL     1       1.066  -1.311   2.125  0.00  0.00    -0.251 OA
ENDROOT
BRANCH   1   3
ATOM      3  O   UNL     1      -0.708  -1.479   0.746  0.00  0.00    -0.481 OA
ATOM      4  H   UNL     1      -1.054  -1.132  -0.097  0.00  0.00    +0.295 HD
ENDBRANCH   1   3
BRANCH   1   5
ATOM      5  C   UNL     1       1.049  -0.007   0.077  0.00  0.00    +0.120 C 
BRANCH   5   6
ATOM      6  C   UNL     1       2.575   0.060   0.071  0.00  0.00    +0.008 C 
ATOM      7  C   UNL     1       3.218  -1.232  -0.416  0.00  0.00    +0.004 C 
ENDBRANCH   5   6
ENDBRANCH   1   5
TORSDOF 3
