REMARK  Name = 
REMARK  16 active torsions:
REMARK  status: ('A' for Active; 'I' for Inactive)
REMARK    1  A    between atoms: C_1  and  C_2
REMARK    2  A    between atoms: C_1  and  C_3
REMARK    3  A    between atoms: C_2  and  C_4
REMARK    4  A    between atoms: C_3  and  C_5
REMARK    5  A    between atoms: C_4  and  C_6
REMARK    6  A    between atoms: C_5  and  C_7
REMARK    7  A    between atoms: C_6  and  C_8
REMARK    8  A    between atoms: C_7  and  C_9
REMARK    9  A    between atoms: C_8  and  C_10
REMARK   10  A    between atoms: C_9  and  C_11
REMARK   11  A    between atoms: C_10  and  C_12
REMARK   12  A    between atoms: C_11  and  O_13
REMARK   13  A    between atoms: C_12  and  C_15
REMARK   14  A    between atoms: C_15  and  C_16
REMARK   15  A    between atoms: C_16  and  C_17
REMARK   16  A    between atoms: C_17  and  C_18
REMARK                            x       y       z     vdW  Elec       q    Type
REMARK                         _______ _______ _______ _____ _____    ______ ____
ROOT
ATOM      1  C   UNL     1       0.500   0.339   1.428  0.00  0.00    +0.000 C 
ENDROOT
BRANCH   1   2
ATOM      2  C   UNL     1       1.008  -0.079   0.062  0.00  0.00    +0.000 C 
BRANCH   2   3
ATOM      3  C   UNL     1       2.524  -0.083   0.055  0.00  0.00    +0.000 C 
BRANCH   3   4
ATOM      4  C   UNL     1       3.038  -0.500  -1.314  0.00  0.00    +0.001 C 
BRANCH   4   5
ATOM      5  C   UNL     1       4.560  -0.505  -1.315  0.00  0.00    +0.011 C 
BRANCH   5   6
ATOM      6  C   UNL     1       5.117  -0.921  -2.677  0.00  0.00    +0.120 C 
BRANCH   6   7
ATOM      7  C   UNL     1       6.633  -0.923  -2.674  0.00  0.00    +0.305 C 
ATOM      8  O   UNL     1       7.299  -0.628  -1.706  0.00  0.00    -0.251 OA
BRANCH   7   9
ATOM      9  O   UNL     1       7.211  -1.279  -3.838  0.00  0.00    -0.481 OA
ATOM     10  H   UNL     1       6.641  -1.509  -4.594  0.00  0.00    +0.295 HD
ENDBRANCH   7   9
ENDBRANCH   6   7
ENDBRANCH   5   6
ENDBRANCH   4   5
ENDBRANCH   3   4
ENDBRANCH   2   3
ENDBRANCH   1   2
BRANCH   1  11
ATOM     11  C   UNL     1      -1.017   0.340   1.433  0.00  0.00    -0.000 C 
BRANCH  11  12
ATOM     12  C   UNL     1      -1.527   0.758   2.798  0.00  0.00    -0.000 C 
BRANCH  12  13
ATOM     13  C   UNL     1      -3.043   0.760   2.803  0.00  0.00    -0.000 C 
BRANCH  13  14
ATOM     14  C   UNL     1      -3.554   1.177   4.169  0.00  0.00    -0.000 C 
BRANCH  14  15
ATOM     15  C   UNL     1      -5.070   1.179   4.174  0.00  0.00    -0.000 C 
BRANCH  15  16
ATOM     16  C   UNL     1      -5.582   1.597   5.540  0.00  0.00    -0.000 C 
BRANCH  16  17
ATOM     17  C   UNL     1      -7.100   1.599   5.547  0.00  0.00    -0.000 C 
BRANCH  17  18
ATOM     18  C   UNL     1      -7.619   2.017   6.914  0.00  0.00    -0.003 C 
ATOM     19  C   UNL     1      -9.133   2.019   6.919  0.00  0.00    +0.004 C 
ENDBRANCH  17  18
ENDBRANCH  16  17
ENDBRANCH  15  16
ENDBRANCH  14  15
ENDBRANCH  13  14
ENDBRANCH  12  13
ENDBRANCH  11  12
ENDBRANCH   1  11
TORSDOF 15
