REMARK  Name = 
REMARK  6 active torsions:
REMARK  status: ('A' for Active; 'I' for Inactive)
REMARK    1  A    between atoms: O_1  and  C_2
REMARK    2  A    between atoms: C_2  and  CA_3
REMARK    3  A    between atoms: CA_3  and  C_4
REMARK    4  A    between atoms: CA_3  and  N_8
REMARK    5  A    between atoms: C_4  and  C_5
REMARK    6  A    between atoms: C_5  and  S_6
REMARK                            x       y       z     vdW  Elec       q    Type
REMARK                         _______ _______ _______ _____ _____    ______ ____
ROOT
ATOM      1  CA  UNL     1       3.182   0.093   1.248  0.00  0.00    +0.161 C 
ENDROOT
BRANCH   1   2
ATOM      2  N   UNL     1       2.259   0.175   2.400  0.00  0.00    -0.318 NA
ATOM      3  H1  UNL     1       1.508   0.852   2.298  0.00  0.00    +0.119 HD
ATOM      4  H2  UNL     1       2.748   0.256   3.290  0.00  0.00    +0.119 HD
ENDBRANCH   1   2
BRANCH   1   5
ATOM      5  C   UNL     1       4.262   1.186   1.311  0.00  0.00    +0.322 C 
ATOM      6  OXT UNL     1       5.349   1.101   0.757  0.00  0.00    -0.249 OA
BRANCH   5   7
ATOM      7  O   UNL     1       3.891   2.284   2.009  0.00  0.00    -0.480 OA
ATOM      8  H   UNL     1       2.993   2.174   2.372  0.00  0.00    +0.295 HD
ENDBRANCH   5   7
ENDBRANCH   1   5
BRANCH   1   9
ATOM      9  C   UNL     1       2.371   0.173  -0.053  0.00  0.00    +0.040 C 
BRANCH   9  10
ATOM     10  C   UNL     1       3.240   0.053  -1.306  0.00  0.00    +0.067 C 
BRANCH  10  11
ATOM     11  S   UNL     1       2.198   0.046  -2.797  0.00  0.00    -0.178 S 
ATOM     12  H   UNL     1       1.632  -1.152  -2.591  0.00  0.00    +0.102 HD
ENDBRANCH  10  11
ENDBRANCH   9  10
ENDBRANCH   1   9
TORSDOF 6
