REMARK  Name = 
REMARK  12 active torsions:
REMARK  status: ('A' for Active; 'I' for Inactive)
REMARK    1  A    between atoms: C_1  and  O_3
REMARK    2  A    between atoms: C_2  and  C_6
REMARK    3  A    between atoms: O_3  and  C_7
REMARK    4  A    between atoms: C_4  and  O_9
REMARK    5  A    between atoms: C_6  and  O_11
REMARK    6  A    between atoms: C_8  and  O_14
REMARK    7  A    between atoms: C_10  and  O_15
REMARK    8  A    between atoms: C_13  and  O_18
REMARK    9  A    between atoms: C_16  and  C_20
REMARK   10  A    between atoms: C_17  and  O_21
REMARK   11  A    between atoms: C_19  and  O_22
REMARK   12  A    between atoms: C_20  and  O_23
REMARK                            x       y       z     vdW  Elec       q    Type
REMARK                         _______ _______ _______ _____ _____    ______ ____
ROOT
ATOM      1  O   UNL     1       2.191   1.063  -3.438  0.00  0.00    -0.340 OA
ENDROOT
BRANCH   1   2
ATOM      2  C   UNL     1       1.397  -0.022  -3.991  0.00  0.00    +0.183 C 
ATOM      3  C   UNL     1       1.632   0.013  -5.525  0.00  0.00    +0.178 C 
ATOM      4  C   UNL     1      -0.108   0.138  -3.685  0.00  0.00    +0.179 C 
ATOM      5  O   UNL     1       1.025   1.165  -6.137  0.00  0.00    -0.341 OA
ATOM      6  C   UNL     1      -0.644   1.420  -4.344  0.00  0.00    +0.201 C 
ATOM      7  C   UNL     1      -0.365   1.368  -5.862  0.00  0.00    +0.279 C 
BRANCH   4   8
ATOM      8  O   UNL     1      -0.864  -0.988  -4.147  0.00  0.00    -0.386 OA
ATOM      9  H   UNL     1      -0.498  -1.780  -3.704  0.00  0.00    +0.210 HD
ENDBRANCH   4   8
BRANCH   6  10
ATOM     10  O   UNL     1      -0.033   2.581  -3.757  0.00  0.00    -0.384 OA
ATOM     11  H   UNL     1       0.875   2.618  -4.126  0.00  0.00    +0.210 HD
ENDBRANCH   6  10
BRANCH   7  12
ATOM     12  O   UNL     1      -1.173   0.420  -6.539  0.00  0.00    -0.365 OA
ATOM     13  H   UNL     1      -1.443  -0.249  -5.878  0.00  0.00    +0.213 HD
ENDBRANCH   7  12
BRANCH   3  14
ATOM     14  C   UNL     1       1.283  -1.294  -6.259  0.00  0.00    +0.190 C 
BRANCH  14  15
ATOM     15  O   UNL     1       2.023  -2.391  -5.729  0.00  0.00    -0.392 OA
ATOM     16  H   UNL     1       2.898  -2.378  -6.157  0.00  0.00    +0.210 HD
ENDBRANCH  14  15
ENDBRANCH   3  14
ENDBRANCH   1   2
BRANCH   1  17
ATOM     17  C   UNL     1       2.141   1.148  -2.005  0.00  0.00    +0.282 C 
ATOM     18  O   UNL     1       2.659  -0.043  -1.429  0.00  0.00    -0.341 OA
ATOM     19  C   UNL     1       2.999   2.362  -1.588  0.00  0.00    +0.201 C 
ATOM     20  C   UNL     1       2.624  -0.045   0.014  0.00  0.00    +0.178 C 
ATOM     21  C   UNL     1       3.002   2.479  -0.056  0.00  0.00    +0.179 C 
ATOM     22  C   UNL     1       3.430   1.140   0.584  0.00  0.00    +0.177 C 
BRANCH  19  23
ATOM     23  O   UNL     1       4.345   2.200  -2.065  0.00  0.00    -0.384 OA
ATOM     24  H   UNL     1       4.260   1.780  -2.945  0.00  0.00    +0.210 HD
ENDBRANCH  19  23
BRANCH  21  25
ATOM     25  O   UNL     1       1.706   2.830   0.438  0.00  0.00    -0.386 OA
ATOM     26  H   UNL     1       1.317   3.516  -0.136  0.00  0.00    +0.210 HD
ENDBRANCH  21  25
BRANCH  22  27
ATOM     27  O   UNL     1       4.826   0.902   0.347  0.00  0.00    -0.386 OA
ATOM     28  H   UNL     1       4.972   0.997  -0.619  0.00  0.00    +0.210 HD
ENDBRANCH  22  27
BRANCH  20  29
ATOM     29  C   UNL     1       1.173  -0.123   0.550  0.00  0.00    +0.190 C 
BRANCH  29  30
ATOM     30  O   UNL     1       0.503  -1.266   0.025  0.00  0.00    -0.392 OA
ATOM     31  H   UNL     1       0.963  -2.053   0.365  0.00  0.00    +0.210 HD
ENDBRANCH  29  30
ENDBRANCH  20  29
ENDBRANCH   1  17
TORSDOF 12
