REMARK  Name = 
REMARK  13 active torsions:
REMARK  status: ('A' for Active; 'I' for Inactive)
REMARK    1  A    between atoms: N_1  and  C_2
REMARK    2  A    between atoms: C_5  and  O_11
REMARK    3  A    between atoms: C_10  and  O_15
REMARK    4  A    between atoms: C_12  and  C_16
REMARK    5  A    between atoms: O_15  and  P_19
REMARK    6  A    between atoms: C_16  and  O_20
REMARK    7  A    between atoms: P_19  and  O_21
REMARK    8  A    between atoms: P_19  and  O_22
REMARK    9  A    between atoms: O_20  and  P_24
REMARK   10  A    between atoms: P_24  and  O_25
REMARK   11  A    between atoms: P_24  and  O_26
REMARK   12  A    between atoms: O_25  and  S_28
REMARK   13  A    between atoms: S_28  and  O_29
REMARK                            x       y       z     vdW  Elec       q    Type
REMARK                         _______ _______ _______ _____ _____    ______ ____
ROOT
ATOM      1  C   UNL     1       2.001   2.433  -0.273  0.00  0.00    +0.253 C 
ATOM      2  C   UNL     1       1.482   2.817   1.118  0.00  0.00    +0.196 C 
ATOM      3  O   UNL     1       1.503   3.473  -1.164  0.00  0.00    -0.346 OA
ATOM      4  C   UNL     1       1.589   4.334   1.051  0.00  0.00    +0.194 C 
ATOM      5  C   UNL     1       1.095   4.603  -0.366  0.00  0.00    +0.179 C 
ENDROOT
BRANCH   1   6
ATOM      6  N   UNL     1       3.449   2.375  -0.387  0.00  0.00    -0.286 N 
ATOM      7  C   UNL     1       4.282   1.578   0.355  0.00  0.00    +0.167 A 
ATOM      8  C   UNL     1       4.232   3.044  -1.293  0.00  0.00    +0.203 A 
ATOM      9  C   UNL     1       5.549   1.807  -0.158  0.00  0.00    +0.147 A 
ATOM     10  N   UNL     1       3.950   0.743   1.352  0.00  0.00    -0.216 NA
ATOM     11  N   UNL     1       5.507   2.747  -1.165  0.00  0.00    -0.231 NA
ATOM     12  C   UNL     1       6.603   1.063   0.398  0.00  0.00    +0.147 A 
ATOM     13  C   UNL     1       5.046   0.121   1.840  0.00  0.00    +0.225 A 
ATOM     14  N   UNL     1       6.329   0.229   1.427  0.00  0.00    -0.219 NA
ATOM     15  N   UNL     1       7.904   1.129  -0.073  0.00  0.00    -0.341 N 
ATOM     16  H   UNL     1       8.115   1.950  -0.628  0.00  0.00    +0.144 HD
ATOM     17  H   UNL     1       8.596   0.788   0.579  0.00  0.00    +0.144 HD
ENDBRANCH   1   6
BRANCH   2  18
ATOM     18  O   UNL     1       0.113   2.423   1.333  0.00  0.00    -0.385 OA
ATOM     19  H   UNL     1      -0.401   2.605   0.517  0.00  0.00    +0.210 HD
ENDBRANCH   2  18
BRANCH   4  20
ATOM     20  O   UNL     1       0.825   5.018   2.020  0.00  0.00    -0.278 OA
BRANCH  20  21
ATOM     21  P   UNL     1       1.173   4.722   3.554  0.00  0.00    +0.473 P 
ATOM     22  O   UNL     1       2.529   4.154   3.788  0.00  0.00    -0.228 OA
BRANCH  21  23
ATOM     23  O   UNL     1       0.884   6.146   4.205  0.00  0.00    -0.303 OA
ATOM     24  H   UNL     1       0.101   6.563   3.807  0.00  0.00    +0.222 HD
ENDBRANCH  21  23
BRANCH  21  25
ATOM     25  O   UNL     1      -0.054   3.829   4.032  0.00  0.00    -0.303 OA
ATOM     26  H   UNL     1      -0.024   2.937   3.631  0.00  0.00    +0.222 HD
ENDBRANCH  21  25
ENDBRANCH  20  21
ENDBRANCH   4  20
BRANCH   5  27
ATOM     27  C   UNL     1       1.643   5.906  -0.939  0.00  0.00    +0.206 C 
BRANCH  27  28
ATOM     28  O   UNL     1       1.199   6.984  -0.138  0.00  0.00    -0.283 OA
BRANCH  28  29
ATOM     29  P   UNL     1       1.684   8.459  -0.523  0.00  0.00    +0.498 P 
ATOM     30  O   UNL     1       2.338   8.619  -1.851  0.00  0.00    -0.225 OA
BRANCH  29  31
ATOM     31  O   UNL     1       2.735   8.684   0.674  0.00  0.00    -0.301 OA
ATOM     32  H   UNL     1       3.497   8.078   0.624  0.00  0.00    +0.222 HD
ENDBRANCH  29  31
BRANCH  29  33
ATOM     33  O   UNL     1       0.519   9.452  -0.094  0.00  0.00    -0.109 OA
BRANCH  33  34
ATOM     34  S   UNL     1      -0.757   9.135  -0.997  0.00  0.00    +0.216 S 
ATOM     35  O   UNL     1      -0.490   9.501  -2.368  0.00  0.00    -0.118 OA
ATOM     36  O   UNL     1      -1.320   7.854  -0.638  0.00  0.00    -0.118 OA
BRANCH  34  37
ATOM     37  O   UNL     1      -1.802  10.251  -0.477  0.00  0.00    -0.231 OA
ATOM     38  H   UNL     1      -1.630  11.085  -0.968  0.00  0.00    +0.247 HD
ENDBRANCH  34  37
ENDBRANCH  33  34
ENDBRANCH  29  33
ENDBRANCH  28  29
ENDBRANCH  27  28
ENDBRANCH   5  27
TORSDOF 13
