REMARK  Name = 
REMARK  4 active torsions:
REMARK  status: ('A' for Active; 'I' for Inactive)
REMARK    1  A    between atoms: C_1  and  C_7
REMARK    2  A    between atoms: C_7  and  C_8
REMARK    3  A    between atoms: C_8  and  C_9
REMARK    4  A    between atoms: C_9  and  O_10
REMARK                            x       y       z     vdW  Elec       q    Type
REMARK                         _______ _______ _______ _____ _____    ______ ____
ROOT
ATOM      1  C   UNL     1       2.713  -0.663   0.198  0.00  0.00    +0.121 C 
ENDROOT
BRANCH   1   2
ATOM      2  C   UNL     1       1.285  -0.227  -0.021  0.00  0.00    -0.040 A 
ATOM      3  C   UNL     1       0.307  -1.158  -0.400  0.00  0.00    +0.004 A 
ATOM      4  C   UNL     1       0.902   1.100   0.218  0.00  0.00    +0.004 A 
ATOM      5  C   UNL     1      -1.036  -0.783  -0.470  0.00  0.00    +0.000 A 
ATOM      6  C   UNL     1      -0.442   1.472   0.146  0.00  0.00    +0.000 A 
ATOM      7  C   UNL     1      -1.412   0.527  -0.182  0.00  0.00    +0.000 A 
ENDBRANCH   1   2
BRANCH   1   8
ATOM      8  C   UNL     1       3.634  -0.521  -0.983  0.00  0.00    +0.243 C 
ATOM      9  O   UNL     1       3.366  -0.098  -2.105  0.00  0.00    -0.285 OA
BRANCH   8  10
ATOM     10  C   UNL     1       5.074  -0.961  -0.732  0.00  0.00    +0.373 C 
ATOM     11  O   UNL     1       5.460  -1.403   0.331  0.00  0.00    -0.242 OA
BRANCH  10  12
ATOM     12  O   UNL     1       5.827  -0.786  -1.834  0.00  0.00    -0.475 OA
ATOM     13  H   UNL     1       5.265  -0.415  -2.555  0.00  0.00    +0.295 HD
ENDBRANCH  10  12
ENDBRANCH   8  10
ENDBRANCH   1   8
TORSDOF 4
