REMARK  Name = 
REMARK  23 active torsions:
REMARK  status: ('A' for Active; 'I' for Inactive)
REMARK    1  A    between atoms: N_7  and  C_19
REMARK    2  A    between atoms: C_12  and  C_18
REMARK    3  A    between atoms: C_13  and  C_17
REMARK    4  A    between atoms: C_19  and  C_20
REMARK    5  A    between atoms: C_20  and  C_21
REMARK    6  A    between atoms: C_20  and  O_25
REMARK    7  A    between atoms: C_21  and  C_22
REMARK    8  A    between atoms: C_21  and  O_27
REMARK    9  A    between atoms: C_22  and  C_23
REMARK   10  A    between atoms: C_22  and  O_26
REMARK   11  A    between atoms: C_23  and  O_24
REMARK   12  A    between atoms: O_24  and  P_28
REMARK   13  A    between atoms: P_28  and  O_29
REMARK   14  A    between atoms: P_28  and  O_31
REMARK   15  A    between atoms: O_29  and  P_32
REMARK   16  A    between atoms: P_32  and  O_33
REMARK   17  A    between atoms: P_32  and  O_35
REMARK   18  A    between atoms: O_33  and  C_37
REMARK   19  A    between atoms: C_36  and  C_37
REMARK   20  A    between atoms: C_38  and  O_42
REMARK   21  A    between atoms: C_39  and  O_43
REMARK   22  A    between atoms: C_40  and  N_50
REMARK   23  A    between atoms: C_49  and  N_53
REMARK                            x       y       z     vdW  Elec       q    Type
REMARK                         _______ _______ _______ _____ _____    ______ ____
ROOT
ATOM      1  P   UNL     1      -2.904   0.827   3.326  0.00  0.00    +0.483 P 
ATOM      2  O   UNL     1      -2.959  -0.665   3.344  0.00  0.00    -0.227 OA
ENDROOT
BRANCH   1   3
ATOM      3  O   UNL     1      -1.404   1.364   3.182  0.00  0.00    -0.302 OA
ATOM      4  H   UNL     1      -0.821   0.838   3.769  0.00  0.00    +0.222 HD
ENDBRANCH   1   3
BRANCH   1   5
ATOM      5  O   UNL     1      -3.313   1.510   4.714  0.00  0.00    -0.186 OA
BRANCH   5   6
ATOM      6  P   UNL     1      -4.491   2.767   4.560  0.00  0.00    +0.483 P 
ATOM      7  O   UNL     1      -4.436   3.078   6.053  0.00  0.00    -0.227 OA
BRANCH   6   8
ATOM      8  O   UNL     1      -5.670   4.024   4.406  0.00  0.00    -0.302 OA
ATOM      9  H   UNL     1      -6.008   4.138   5.320  0.00  0.00    +0.222 HD
ENDBRANCH   6   8
BRANCH   6  10
ATOM     10  O   UNL     1      -5.696   1.684   4.304  0.00  0.00    -0.284 OA
BRANCH  10  11
ATOM     11  C   UNL     1      -5.919   0.570   5.159  0.00  0.00    +0.206 C 
BRANCH  11  12
ATOM     12  C   UNL     1      -7.242  -0.111   4.783  0.00  0.00    +0.178 C 
ATOM     13  C   UNL     1      -7.409  -0.273   3.259  0.00  0.00    +0.178 C 
ATOM     14  C   UNL     1      -8.321   0.902   2.896  0.00  0.00    +0.195 C 
ATOM     15  C   UNL     1      -9.243   0.846   4.113  0.00  0.00    +0.253 C 
ATOM     16  O   UNL     1      -8.362   0.696   5.246  0.00  0.00    -0.346 OA
BRANCH  15  23
ATOM     17  N   UNL     1     -11.400   5.518   3.167  0.00  0.00    -0.219 NA
ATOM     18  C   UNL     1     -10.087   5.184   3.122  0.00  0.00    +0.225 A 
ATOM     19  N   UNL     1      -9.496   3.994   3.402  0.00  0.00    -0.216 NA
ATOM     20  C   UNL     1     -10.396   3.130   3.902  0.00  0.00    +0.167 A 
ATOM     21  C   UNL     1     -11.755   3.370   4.075  0.00  0.00    +0.147 A 
ATOM     22  C   UNL     1     -12.272   4.579   3.591  0.00  0.00    +0.147 A 
ATOM     23  N   UNL     1     -10.230   1.861   4.380  0.00  0.00    -0.286 N 
ATOM     24  C   UNL     1     -11.376   1.552   5.082  0.00  0.00    +0.203 A 
ATOM     25  N   UNL     1     -12.364   2.361   4.784  0.00  0.00    -0.231 NA
BRANCH  22  26
ATOM     26  N   UNL     1     -13.638   4.852   3.619  0.00  0.00    -0.341 N 
ATOM     27  H   UNL     1     -14.147   4.144   4.141  0.00  0.00    +0.144 HD
ATOM     28  H   UNL     1     -13.821   5.813   3.875  0.00  0.00    +0.144 HD
ENDBRANCH  22  26
ENDBRANCH  15  23
BRANCH  14  29
ATOM     29  O   UNL     1      -8.947   0.691   1.634  0.00  0.00    -0.385 OA
ATOM     30  H   UNL     1      -9.371  -0.186   1.656  0.00  0.00    +0.210 HD
ENDBRANCH  14  29
BRANCH  13  31
ATOM     31  O   UNL     1      -8.115  -1.501   2.981  0.00  0.00    -0.386 OA
ATOM     32  H   UNL     1      -7.865  -1.779   2.080  0.00  0.00    +0.210 HD
ENDBRANCH  13  31
ENDBRANCH  11  12
ENDBRANCH  10  11
ENDBRANCH   6  10
ENDBRANCH   5   6
ENDBRANCH   1   5
BRANCH   1  33
ATOM     33  O   UNL     1      -3.638   1.472   2.053  0.00  0.00    -0.284 OA
BRANCH  33  34
ATOM     34  C   UNL     1      -4.209   2.753   1.851  0.00  0.00    +0.206 C 
BRANCH  34  35
ATOM     35  C   UNL     1      -3.614   3.496   0.691  0.00  0.00    +0.172 C 
BRANCH  35  36
ATOM     36  O   UNL     1      -2.267   3.762   1.070  0.00  0.00    -0.387 OA
ATOM     37  H   UNL     1      -1.857   2.915   1.350  0.00  0.00    +0.210 HD
ENDBRANCH  35  36
BRANCH  35  38
ATOM     38  C   UNL     1      -3.775   2.725  -0.609  0.00  0.00    +0.175 C 
BRANCH  38  39
ATOM     39  O   UNL     1      -5.171   2.524  -0.885  0.00  0.00    -0.387 OA
ATOM     40  H   UNL     1      -5.679   3.321  -0.669  0.00  0.00    +0.210 HD
ENDBRANCH  38  39
BRANCH  38  41
ATOM     41  C   UNL     1      -3.055   3.395  -1.801  0.00  0.00    +0.165 C 
BRANCH  41  42
ATOM     42  O   UNL     1      -3.636   4.689  -2.080  0.00  0.00    -0.387 OA
ATOM     43  H   UNL     1      -3.686   5.211  -1.264  0.00  0.00    +0.210 HD
ENDBRANCH  41  42
BRANCH  41  44
ATOM     44  C   UNL     1      -1.515   3.535  -1.613  0.00  0.00    +0.158 C 
BRANCH  44  51
ATOM     45  N   UNL     1      -1.809  -1.526  -2.240  0.00  0.00    -0.272 N 
ATOM     46  C   UNL     1      -2.435  -0.440  -2.744  0.00  0.00    +0.351 A 
ATOM     47  N   UNL     1      -2.003   0.822  -2.436  0.00  0.00    -0.173 NA
ATOM     48  C   UNL     1      -1.116   1.050  -1.528  0.00  0.00    +0.170 A 
ATOM     49  C   UNL     1      -0.440  -0.122  -0.859  0.00  0.00    +0.171 A 
ATOM     50  C   UNL     1      -0.882  -1.514  -1.242  0.00  0.00    +0.282 A 
ATOM     51  N   UNL     1      -0.796   2.349  -1.092  0.00  0.00    -0.320 N 
ATOM     52  C   UNL     1       0.273   2.490  -0.168  0.00  0.00    +0.069 A 
ATOM     53  C   UNL     1       0.887   1.333   0.365  0.00  0.00    +0.089 A 
ATOM     54  N   UNL     1       0.494   0.030   0.021  0.00  0.00    -0.237 NA
ATOM     55  C   UNL     1       0.752   3.730   0.296  0.00  0.00    +0.031 A 
ATOM     56  C   UNL     1       1.777   3.840   1.265  0.00  0.00    -0.045 A 
ATOM     57  C   UNL     1       2.397   2.680   1.744  0.00  0.00    -0.045 A 
ATOM     58  C   UNL     1       1.930   1.439   1.294  0.00  0.00    +0.033 A 
ATOM     59  O   UNL     1      -0.478  -2.510  -0.679  0.00  0.00    -0.265 OA
ATOM     60  O   UNL     1      -3.438  -0.612  -3.443  0.00  0.00    -0.245 OA
ATOM     61  C   UNL     1       3.548   2.689   2.712  0.00  0.00    +0.044 C 
ATOM     62  C   UNL     1       2.185   5.212   1.731  0.00  0.00    +0.044 C 
ATOM     63  H   UNL     1      -2.226  -2.413  -2.466  0.00  0.00    +0.174 HD
ENDBRANCH  44  51
ENDBRANCH  41  44
ENDBRANCH  38  41
ENDBRANCH  35  38
ENDBRANCH  34  35
ENDBRANCH  33  34
ENDBRANCH   1  33
TORSDOF 21
