REMARK  Name = 
REMARK  31 active torsions:
REMARK  status: ('A' for Active; 'I' for Inactive)
REMARK    1  A    between atoms: C_1  and  C_2
REMARK    2  A    between atoms: C_2  and  S_3
REMARK    3  A    between atoms: S_3  and  C_4
REMARK    4  A    between atoms: C_4  and  C_5
REMARK    5  A    between atoms: C_5  and  N_6
REMARK    6  A    between atoms: C_7  and  C_8
REMARK    7  A    between atoms: C_8  and  C_9
REMARK    8  A    between atoms: C_9  and  N_10
REMARK    9  A    between atoms: C_11  and  C_12
REMARK   10  A    between atoms: C_12  and  C_13
REMARK   11  A    between atoms: C_12  and  O_19
REMARK   12  A    between atoms: C_13  and  C_14
REMARK   13  A    between atoms: C_13  and  C_20
REMARK   14  A    between atoms: C_13  and  C_21
REMARK   15  A    between atoms: C_14  and  O_15
REMARK   16  A    between atoms: O_15  and  P_22
REMARK   17  A    between atoms: P_22  and  O_24
REMARK   18  A    between atoms: P_22  and  O_51
REMARK   19  A    between atoms: C_25  and  O_31
REMARK   20  A    between atoms: C_26  and  O_32
REMARK   21  A    between atoms: C_27  and  C_30
REMARK   22  A    between atoms: C_29  and  N_39
REMARK   23  A    between atoms: C_30  and  O_47
REMARK   24  A    between atoms: O_32  and  P_33
REMARK   25  A    between atoms: P_33  and  O_34
REMARK   26  A    between atoms: P_33  and  O_35
REMARK   27  A    between atoms: O_47  and  P_48
REMARK   28  A    between atoms: P_48  and  O_49
REMARK   29  A    between atoms: P_48  and  O_51
REMARK   30  A    between atoms: C_52  and  C_53
REMARK   31  A    between atoms: C_56  and  O_59
REMARK                            x       y       z     vdW  Elec       q    Type
REMARK                         _______ _______ _______ _____ _____    ______ ____
ROOT
ATOM      1  P   UNL     1       7.061   3.232  -9.012  0.00  0.00    +0.483 P 
ATOM      2  O   UNL     1       5.628   3.413  -9.401  0.00  0.00    -0.227 OA
ENDROOT
BRANCH   1   3
ATOM      3  O   UNL     1       7.374   3.675  -7.495  0.00  0.00    -0.302 OA
ATOM      4  H   UNL     1       8.194   3.246  -7.191  0.00  0.00    +0.222 HD
ENDBRANCH   1   3
BRANCH   1   5
ATOM      5  O   UNL     1       7.382   1.598  -8.797  0.00  0.00    -0.286 OA
BRANCH   5   6
ATOM      6  C   UNL     1       6.203   0.805  -8.299  0.00  0.00    +0.181 C 
BRANCH   6   7
ATOM      7  C   UNL     1       6.295  -0.758  -7.894  0.00  0.00    +0.024 C 
ATOM      8  C   UNL     1       7.427  -0.932  -6.840  0.00  0.00    +0.016 C 
ATOM      9  C   UNL     1       6.718  -1.663  -9.074  0.00  0.00    +0.016 C 
BRANCH   7  10
ATOM     10  C   UNL     1       4.865  -1.370  -7.312  0.00  0.00    +0.208 C 
BRANCH  10  12
ATOM     11  N   UNL     1       2.280  -1.544  -7.725  0.00  0.00    -0.313 N 
ATOM     12  C   UNL     1       3.530  -1.169  -8.227  0.00  0.00    +0.242 C 
ATOM     13  O   UNL     1       3.624  -0.781  -9.374  0.00  0.00    -0.273 OA
ATOM     14  H   UNL     1       2.311  -2.011  -6.820  0.00  0.00    +0.149 HD
BRANCH  11  15
ATOM     15  C   UNL     1       1.079  -1.852  -8.598  0.00  0.00    +0.113 C 
BRANCH  15  16
ATOM     16  C   UNL     1       0.020  -0.755  -9.058  0.00  0.00    +0.114 C 
BRANCH  16  18
ATOM     17  N   UNL     1       0.090   1.086 -10.978  0.00  0.00    -0.314 N 
ATOM     18  C   UNL     1      -0.337  -0.201 -10.536  0.00  0.00    +0.215 C 
ATOM     19  O   UNL     1      -1.167  -0.827 -11.216  0.00  0.00    -0.276 OA
ATOM     20  H   UNL     1       0.720   1.539 -10.364  0.00  0.00    +0.149 HD
BRANCH  17  21
ATOM     21  C   UNL     1      -0.775   1.954 -11.863  0.00  0.00    +0.115 C 
BRANCH  21  22
ATOM     22  C   UNL     1      -0.363   3.122 -12.909  0.00  0.00    +0.096 C 
BRANCH  22  23
ATOM     23  S   UNL     1       0.650   4.707 -12.736  0.00  0.00    -0.082 S 
BRANCH  23  24
ATOM     24  C   UNL     1       1.951   4.329 -13.865  0.00  0.00    +0.213 C 
ATOM     25  O   UNL     1       2.419   3.218 -13.830  0.00  0.00    -0.280 OA
BRANCH  24  26
ATOM     26  C   UNL     1       2.520   5.394 -14.839  0.00  0.00    +0.058 C 
ATOM     27  C   UNL     1       3.490   4.952 -15.681  0.00  0.00    +0.012 C 
BRANCH  27  28
ATOM     28  C   UNL     1       4.308   5.492 -16.811  0.00  0.00    -0.025 A 
ATOM     29  C   UNL     1       4.360   6.815 -17.270  0.00  0.00    +0.011 A 
ATOM     30  C   UNL     1       5.130   7.155 -18.408  0.00  0.00    +0.046 A 
ATOM     31  C   UNL     1       5.865   6.181 -19.081  0.00  0.00    +0.117 A 
ATOM     32  C   UNL     1       5.876   4.879 -18.617  0.00  0.00    +0.046 A 
ATOM     33  C   UNL     1       5.108   4.545 -17.495  0.00  0.00    +0.011 A 
BRANCH  31  34
ATOM     34  O   UNL     1       6.586   6.454 -20.205  0.00  0.00    -0.507 OA
ATOM     35  H   UNL     1       6.324   7.322 -20.551  0.00  0.00    +0.292 HD
ENDBRANCH  31  34
ENDBRANCH  27  28
ENDBRANCH  24  26
ENDBRANCH  23  24
ENDBRANCH  22  23
ENDBRANCH  21  22
ENDBRANCH  17  21
ENDBRANCH  16  18
ENDBRANCH  15  16
ENDBRANCH  11  15
ENDBRANCH  10  12
BRANCH  10  36
ATOM     36  O   UNL     1       4.673  -1.040  -5.933  0.00  0.00    -0.382 OA
ATOM     37  H   UNL     1       5.011  -0.145  -5.777  0.00  0.00    +0.210 HD
ENDBRANCH  10  36
ENDBRANCH   7  10
ENDBRANCH   6   7
ENDBRANCH   5   6
ENDBRANCH   1   5
BRANCH   1  38
ATOM     38  O   UNL     1       8.221   4.105  -9.829  0.00  0.00    -0.186 OA
BRANCH  38  39
ATOM     39  P   UNL     1       8.110   5.777 -10.255  0.00  0.00    +0.483 P 
ATOM     40  O   UNL     1       8.011   7.275 -10.637  0.00  0.00    -0.227 OA
BRANCH  39  41
ATOM     41  O   UNL     1       6.499   5.724 -10.099  0.00  0.00    -0.302 OA
ATOM     42  H   UNL     1       6.148   6.559 -10.468  0.00  0.00    +0.222 HD
ENDBRANCH  39  41
BRANCH  39  43
ATOM     43  O   UNL     1       8.298   5.281 -11.763  0.00  0.00    -0.284 OA
BRANCH  43  44
ATOM     44  C   UNL     1       7.214   5.003 -12.615  0.00  0.00    +0.206 C 
BRANCH  44  47
ATOM     45  C   UNL     1      10.128   4.323 -14.694  0.00  0.00    +0.196 C 
ATOM     46  C   UNL     1       9.162   3.690 -13.676  0.00  0.00    +0.194 C 
ATOM     47  C   UNL     1       7.936   4.642 -13.894  0.00  0.00    +0.179 C 
ATOM     48  O   UNL     1       8.481   5.946 -14.337  0.00  0.00    -0.346 OA
ATOM     49  C   UNL     1       9.918   5.833 -14.469  0.00  0.00    +0.253 C 
BRANCH  49  52
ATOM     50  C   UNL     1      12.179   7.177 -11.979  0.00  0.00    +0.147 A 
ATOM     51  C   UNL     1      11.654   6.064 -12.624  0.00  0.00    +0.167 A 
ATOM     52  N   UNL     1      10.601   6.524 -13.377  0.00  0.00    -0.286 N 
ATOM     53  C   UNL     1      10.493   7.872 -13.095  0.00  0.00    +0.203 A 
ATOM     54  N   UNL     1      11.430   8.294 -12.268  0.00  0.00    -0.231 NA
ATOM     55  C   UNL     1      13.330   6.975 -11.190  0.00  0.00    +0.147 A 
ATOM     56  N   UNL     1      13.825   5.721 -11.084  0.00  0.00    -0.219 NA
ATOM     57  C   UNL     1      13.214   4.732 -11.765  0.00  0.00    +0.225 A 
ATOM     58  N   UNL     1      12.121   4.806 -12.547  0.00  0.00    -0.216 NA
ATOM     59  N   UNL     1      13.999   7.985 -10.515  0.00  0.00    -0.341 N 
ATOM     60  H   UNL     1      13.464   8.834 -10.375  0.00  0.00    +0.144 HD
ATOM     61  H   UNL     1      14.582   7.650  -9.763  0.00  0.00    +0.144 HD
ENDBRANCH  49  52
BRANCH  45  62
ATOM     62  O   UNL     1       9.745   4.006 -16.052  0.00  0.00    -0.385 OA
ATOM     63  H   UNL     1       8.942   4.515 -16.277  0.00  0.00    +0.210 HD
ENDBRANCH  45  62
BRANCH  46  64
ATOM     64  O   UNL     1       9.004   2.257 -13.783  0.00  0.00    -0.278 OA
BRANCH  64  65
ATOM     65  P   UNL     1       8.085   1.437 -12.568  0.00  0.00    +0.473 P 
ATOM     66  O   UNL     1       7.263   0.704 -11.481  0.00  0.00    -0.228 OA
BRANCH  65  67
ATOM     67  O   UNL     1       6.754   2.210 -13.107  0.00  0.00    -0.303 OA
ATOM     68  H   UNL     1       5.994   1.694 -12.762  0.00  0.00    +0.222 HD
ENDBRANCH  65  67
BRANCH  65  69
ATOM     69  O   UNL     1       7.975   0.207 -13.639  0.00  0.00    -0.303 OA
ATOM     70  H   UNL     1       8.520  -0.553 -13.379  0.00  0.00    +0.222 HD
ENDBRANCH  65  69
ENDBRANCH  64  65
ENDBRANCH  46  64
ENDBRANCH  44  47
ENDBRANCH  43  44
ENDBRANCH  39  43
ENDBRANCH  38  39
ENDBRANCH   1  38
TORSDOF 29
