REMARK  Name = 
REMARK  5 active torsions:
REMARK  status: ('A' for Active; 'I' for Inactive)
REMARK    1  A    between atoms: C_1  and  C_2
REMARK    2  A    between atoms: C_1  and  C_3
REMARK    3  A    between atoms: C_2  and  C_4
REMARK    4  A    between atoms: C_3  and  N_5
REMARK    5  A    between atoms: C_4  and  N_6
REMARK                            x       y       z     vdW  Elec       q    Type
REMARK                         _______ _______ _______ _____ _____    ______ ____
ROOT
ATOM      1  C   UNL     1       0.985   0.091  -0.029  0.00  0.00    +0.016 C 
ENDROOT
BRANCH   1   2
ATOM      2  C   UNL     1       0.456   1.511  -0.241  0.00  0.00    +0.016 C 
BRANCH   2   3
ATOM      3  C   UNL     1      -1.070   1.534  -0.244  0.00  0.00    +0.077 C 
BRANCH   3   4
ATOM      4  N   UNL     1      -1.552   2.895  -0.446  0.00  0.00    -0.330 NA
ATOM      5  H   UNL     1      -1.236   3.489   0.319  0.00  0.00    +0.118 HD
ATOM      6  H   UNL     1      -2.570   2.901  -0.411  0.00  0.00    +0.118 HD
ENDBRANCH   3   4
ENDBRANCH   2   3
ENDBRANCH   1   2
BRANCH   1   7
ATOM      7  C   UNL     1       2.512   0.068  -0.028  0.00  0.00    +0.077 C 
BRANCH   7   8
ATOM      8  N   UNL     1       2.993  -1.294   0.174  0.00  0.00    -0.330 NA
ATOM      9  H   UNL     1       2.678  -1.639   1.080  0.00  0.00    +0.118 HD
ATOM     10  H   UNL     1       4.011  -1.290   0.208  0.00  0.00    +0.118 HD
ENDBRANCH   7   8
ENDBRANCH   1   7
TORSDOF 5
