REMARK  Name = 
REMARK  6 active torsions:
REMARK  status: ('A' for Active; 'I' for Inactive)
REMARK    1  A    between atoms: CA_1  and  CB_2
REMARK    2  A    between atoms: CA_1  and  C_3
REMARK    3  A    between atoms: CA_1  and  N_4
REMARK    4  A    between atoms: CB_2  and  CG_5
REMARK    5  A    between atoms: C_3  and  O_6
REMARK    6  A    between atoms: CG_5  and  CD_8
REMARK                            x       y       z     vdW  Elec       q    Type
REMARK                         _______ _______ _______ _____ _____    ______ ____
ROOT
ATOM      1  CA  GLN A   1       1.125  -0.067   0.058  0.00  0.00    +0.161 C 
ENDROOT
BRANCH   1   2
ATOM      2  N   GLN A   1       0.766  -0.685   1.349  0.00  0.00    -0.318 NA
ATOM      3  H1  GLN A   1      -0.183  -1.037   1.408  0.00  0.00    +0.119 HD
ATOM      4  H2  GLN A   1       1.001  -0.085   2.138  0.00  0.00    +0.119 HD
ENDBRANCH   1   2
BRANCH   1   5
ATOM      5  C   GLN A   1       0.611   1.380  -0.034  0.00  0.00    +0.322 C 
ATOM      6  OXT GLN A   1       1.175   2.264  -0.665  0.00  0.00    -0.249 OA
BRANCH   5   7
ATOM      7  O   GLN A   1      -0.562   1.590   0.607  0.00  0.00    -0.480 OA
ATOM      8  H   GLN A   1      -0.876   0.775   1.038  0.00  0.00    +0.295 HD
ENDBRANCH   5   7
ENDBRANCH   1   5
BRANCH   1   9
ATOM      9  CB  GLN A   1       0.582  -0.917  -1.095  0.00  0.00    +0.039 C 
BRANCH   9  10
ATOM     10  CG  GLN A   1       1.052  -0.422  -2.464  0.00  0.00    +0.097 C 
BRANCH  10  11
ATOM     11  CD  GLN A   1       0.533  -1.288  -3.591  0.00  0.00    +0.211 C 
ATOM     12  NE2 GLN A   1       0.952  -0.896  -4.829  0.00  0.00    -0.329 N 
ATOM     13  OE1 GLN A   1      -0.207  -2.251  -3.446  0.00  0.00    -0.276 OA
ATOM     14 HE21 GLN A   1       1.550  -0.097  -4.984  0.00  0.00    +0.145 HD
ATOM     15 HE22 GLN A   1       0.625  -1.424  -5.628  0.00  0.00    +0.145 HD
ENDBRANCH  10  11
ENDBRANCH   9  10
ENDBRANCH   1   9
TORSDOF 6
