REMARK  Name = 
REMARK  12 active torsions:
REMARK  status: ('A' for Active; 'I' for Inactive)
REMARK    1  A    between atoms: C_1  and  O_3
REMARK    2  A    between atoms: C_2  and  C_6
REMARK    3  A    between atoms: O_3  and  C_7
REMARK    4  A    between atoms: C_4  and  O_9
REMARK    5  A    between atoms: C_6  and  O_11
REMARK    6  A    between atoms: C_8  and  O_14
REMARK    7  A    between atoms: C_10  and  O_15
REMARK    8  A    between atoms: C_13  and  O_18
REMARK    9  A    between atoms: C_16  and  C_20
REMARK   10  A    between atoms: C_17  and  O_21
REMARK   11  A    between atoms: C_19  and  O_22
REMARK   12  A    between atoms: C_20  and  O_23
REMARK                            x       y       z     vdW  Elec       q    Type
REMARK                         _______ _______ _______ _____ _____    ______ ____
ROOT
ATOM      1  O   UNL     1       2.175   1.038  -3.425  0.00  0.00    -0.340 OA
ENDROOT
BRANCH   1   2
ATOM      2  C   UNL     1       1.377  -0.048  -3.967  0.00  0.00    +0.183 C 
ATOM      3  C   UNL     1       1.598  -0.023  -5.503  0.00  0.00    +0.178 C 
ATOM      4  C   UNL     1      -0.127   0.111  -3.649  0.00  0.00    +0.179 C 
ATOM      5  O   UNL     1       0.988   1.127  -6.113  0.00  0.00    -0.341 OA
ATOM      6  C   UNL     1      -0.668   1.390  -4.309  0.00  0.00    +0.201 C 
ATOM      7  C   UNL     1      -0.399   1.335  -5.830  0.00  0.00    +0.279 C 
BRANCH   4   8
ATOM      8  O   UNL     1      -0.887  -1.016  -4.101  0.00  0.00    -0.386 OA
ATOM      9  H   UNL     1      -0.517  -1.807  -3.659  0.00  0.00    +0.210 HD
ENDBRANCH   4   8
BRANCH   6  10
ATOM     10  O   UNL     1      -0.055   2.554  -3.729  0.00  0.00    -0.384 OA
ATOM     11  H   UNL     1       0.849   2.591  -4.105  0.00  0.00    +0.210 HD
ENDBRANCH   6  10
BRANCH   7  12
ATOM     12  O   UNL     1      -1.213   0.389  -6.502  0.00  0.00    -0.365 OA
ATOM     13  H   UNL     1      -1.477  -0.282  -5.840  0.00  0.00    +0.213 HD
ENDBRANCH   7  12
BRANCH   3  14
ATOM     14  C   UNL     1       1.237  -1.332  -6.231  0.00  0.00    +0.190 C 
BRANCH  14  15
ATOM     15  O   UNL     1       1.974  -2.430  -5.703  0.00  0.00    -0.392 OA
ATOM     16  H   UNL     1       2.833  -2.444  -6.162  0.00  0.00    +0.210 HD
ENDBRANCH  14  15
ENDBRANCH   3  14
ENDBRANCH   1   2
BRANCH   1  17
ATOM     17  C   UNL     1       2.124   1.136  -1.994  0.00  0.00    +0.282 C 
ATOM     18  O   UNL     1       2.646  -0.043  -1.402  0.00  0.00    -0.341 OA
ATOM     19  C   UNL     1       2.977   2.362  -1.590  0.00  0.00    +0.201 C 
ATOM     20  C   UNL     1       2.616  -0.024   0.041  0.00  0.00    +0.178 C 
ATOM     21  C   UNL     1       2.985   2.497  -0.062  0.00  0.00    +0.179 C 
ATOM     22  C   UNL     1       3.420   1.172   0.593  0.00  0.00    +0.177 C 
BRANCH  19  23
ATOM     23  O   UNL     1       4.325   2.199  -2.071  0.00  0.00    -0.384 OA
ATOM     24  H   UNL     1       4.239   1.779  -2.951  0.00  0.00    +0.210 HD
ENDBRANCH  19  23
BRANCH  21  25
ATOM     25  O   UNL     1       1.689   2.850   0.429  0.00  0.00    -0.386 OA
ATOM     26  H   UNL     1       1.289   3.518  -0.155  0.00  0.00    +0.210 HD
ENDBRANCH  21  25
BRANCH  22  27
ATOM     27  O   UNL     1       4.814   0.936   0.356  0.00  0.00    -0.386 OA
ATOM     28  H   UNL     1       4.962   1.036  -0.610  0.00  0.00    +0.210 HD
ENDBRANCH  22  27
BRANCH  20  29
ATOM     29  C   UNL     1       1.175  -0.100   0.586  0.00  0.00    +0.190 C 
BRANCH  29  30
ATOM     30  O   UNL     1       0.503  -1.256   0.084  0.00  0.00    -0.392 OA
ATOM     31  H   UNL     1       0.962  -2.034   0.443  0.00  0.00    +0.210 HD
ENDBRANCH  29  30
ENDBRANCH  20  29
ENDBRANCH   1  17
TORSDOF 12
