REMARK  Name = 
REMARK  4 active torsions:
REMARK  status: ('A' for Active; 'I' for Inactive)
REMARK    1  A    between atoms: P_1  and  O_2
REMARK    2  A    between atoms: P_1  and  O_3
REMARK    3  A    between atoms: P_1  and  O_4
REMARK    4  A    between atoms: O_2  and  C_6
REMARK                            x       y       z     vdW  Elec       q    Type
REMARK                         _______ _______ _______ _____ _____    ______ ____
ROOT
ATOM      1  P   UNL     1       0.968  -0.080  -0.051  0.00  0.00    +0.531 P 
ATOM      2  O   UNL     1       2.516  -0.080  -0.051  0.00  0.00    -0.215 OA
ENDROOT
BRANCH   1   3
ATOM      3  O   UNL     1       0.786  -1.574   0.600  0.00  0.00    -0.293 OA
ATOM      4  H   UNL     1       0.866  -1.536   1.570  0.00  0.00    +0.223 HD
ENDBRANCH   1   3
BRANCH   1   5
ATOM      5  O   UNL     1      -0.762  -0.080  -0.051  0.00  0.00    -0.293 OA
ATOM      6  H   UNL     1      -1.009  -0.935  -0.455  0.00  0.00    +0.223 HD
ENDBRANCH   1   5
BRANCH   1   7
ATOM      7  O   UNL     1       0.812  -0.475  -1.637  0.00  0.00    -0.357 OA
BRANCH   7   8
ATOM      8  C   UNL     1       0.873   0.518  -2.534  0.00  0.00    +0.405 C 
ATOM      9  N   UNL     1       0.712   0.039  -3.789  0.00  0.00    -0.295 N 
ATOM     10  O   UNL     1       1.016   1.702  -2.276  0.00  0.00    -0.226 OA
ATOM     11  H   UNL     1       0.643  -0.955  -3.951  0.00  0.00    +0.148 HD
ATOM     12  H   UNL     1       0.784   0.678  -4.568  0.00  0.00    +0.148 HD
ENDBRANCH   7   8
ENDBRANCH   1   7
TORSDOF 4
