REMARK  Name = 
REMARK  14 active torsions:
REMARK  status: ('A' for Active; 'I' for Inactive)
REMARK    1  A    between atoms: C_1  and  N_2
REMARK    2  A    between atoms: C_4  and  O_9
REMARK    3  A    between atoms: C_7  and  C_13
REMARK    4  A    between atoms: C_8  and  O_14
REMARK    5  A    between atoms: C_13  and  O_16
REMARK    6  A    between atoms: O_16  and  P_18
REMARK    7  A    between atoms: P_18  and  O_19
REMARK    8  A    between atoms: P_18  and  O_20
REMARK    9  A    between atoms: O_19  and  P_22
REMARK   10  A    between atoms: P_22  and  O_23
REMARK   11  A    between atoms: P_22  and  O_24
REMARK   12  A    between atoms: O_23  and  P_26
REMARK   13  A    between atoms: P_26  and  O_27
REMARK   14  A    between atoms: P_26  and  O_28
REMARK                            x       y       z     vdW  Elec       q    Type
REMARK                         _______ _______ _______ _____ _____    ______ ____
ROOT
ATOM      1  C   UNL     1       0.287   1.313   0.483  0.00  0.00    +0.255 C 
ATOM      2  O   UNL     1       1.563   0.667   0.266  0.00  0.00    -0.346 OA
ATOM      3  C   UNL     1      -0.735   0.548  -0.372  0.00  0.00    +0.195 C 
ATOM      4  C   UNL     1       1.348  -0.675  -0.250  0.00  0.00    +0.178 C 
ATOM      5  C   UNL     1      -0.179  -0.870  -0.332  0.00  0.00    +0.178 C 
ENDROOT
BRANCH   1   6
ATOM      6  N   UNL     1       0.412   2.752   0.226  0.00  0.00    -0.271 N 
ATOM      7  C   UNL     1       0.591   3.179  -1.065  0.00  0.00    +0.331 A 
ATOM      8  C   UNL     1       0.409   3.679   1.258  0.00  0.00    +0.098 A 
ATOM      9  N   UNL     1       1.044   4.452  -1.241  0.00  0.00    -0.275 N 
ATOM     10  O   UNL     1       0.483   2.459  -2.059  0.00  0.00    -0.246 OA
ATOM     11  C   UNL     1       0.577   4.983   1.036  0.00  0.00    +0.088 A 
ATOM     12  C   UNL     1       0.923   5.439  -0.318  0.00  0.00    +0.254 A 
ATOM     13  O   UNL     1       1.207   6.607  -0.547  0.00  0.00    -0.268 OA
ATOM     14  H   UNL     1       2.030   4.417  -1.465  0.00  0.00    +0.173 HD
ENDBRANCH   1   6
BRANCH   3  15
ATOM     15  O   UNL     1      -2.060   0.661   0.143  0.00  0.00    -0.385 OA
ATOM     16  H   UNL     1      -2.253  -0.176   0.606  0.00  0.00    +0.210 HD
ENDBRANCH   3  15
BRANCH   5  17
ATOM     17  O   UNL     1      -0.710  -1.523   0.835  0.00  0.00    -0.386 OA
ATOM     18  H   UNL     1      -0.163  -1.297   1.609  0.00  0.00    +0.210 HD
ENDBRANCH   5  17
BRANCH   4  19
ATOM     19  C   UNL     1       2.089  -0.866  -1.598  0.00  0.00    +0.206 C 
BRANCH  19  20
ATOM     20  O   UNL     1       3.518  -0.873  -1.417  0.00  0.00    -0.284 OA
BRANCH  20  21
ATOM     21  P   UNL     1       4.424  -1.015  -2.884  0.00  0.00    +0.483 P 
ATOM     22  O   UNL     1       5.235  -1.141  -4.197  0.00  0.00    -0.227 OA
BRANCH  21  23
ATOM     23  O   UNL     1       5.583  -1.718  -1.958  0.00  0.00    -0.302 OA
ATOM     24  H   UNL     1       5.595  -2.683  -2.066  0.00  0.00    +0.222 HD
ENDBRANCH  21  23
BRANCH  21  25
ATOM     25  O   UNL     1       4.897   0.545  -2.686  0.00  0.00    -0.186 OA
BRANCH  25  26
ATOM     26  P   UNL     1       5.023   1.484  -3.995  0.00  0.00    +0.492 P 
ATOM     27  O   UNL     1       4.069   1.232  -5.119  0.00  0.00    -0.226 OA
BRANCH  26  28
ATOM     28  O   UNL     1       6.556   1.330  -4.446  0.00  0.00    -0.302 OA
ATOM     29  H   UNL     1       6.628   0.488  -4.939  0.00  0.00    +0.222 HD
ENDBRANCH  26  28
BRANCH  26  30
ATOM     30  O   UNL     1       4.999   2.984  -3.439  0.00  0.00    -0.186 OA
BRANCH  30  31
ATOM     31  P   UNL     1       3.558   3.542  -3.112  0.00  0.00    +0.481 P 
ATOM     32  O   UNL     1       2.923   4.519  -4.031  0.00  0.00    -0.227 OA
BRANCH  31  33
ATOM     33  O   UNL     1       2.739   2.212  -2.815  0.00  0.00    -0.302 OA
ATOM     34  H   UNL     1       1.764   2.322  -2.766  0.00  0.00    +0.222 HD
ENDBRANCH  31  33
BRANCH  31  35
ATOM     35  O   UNL     1       3.707   4.126  -1.625  0.00  0.00    -0.302 OA
ATOM     36  H   UNL     1       4.301   4.903  -1.608  0.00  0.00    +0.222 HD
ENDBRANCH  31  35
ENDBRANCH  30  31
ENDBRANCH  26  30
ENDBRANCH  25  26
ENDBRANCH  21  25
ENDBRANCH  20  21
ENDBRANCH  19  20
ENDBRANCH   4  19
TORSDOF 14
