REMARK  Name = 
REMARK  3 active torsions:
REMARK  status: ('A' for Active; 'I' for Inactive)
REMARK    1  A    between atoms: C_1  and  C_2
REMARK    2  A    between atoms: C_2  and  C_3
REMARK    3  A    between atoms: C_3  and  O_4
REMARK                            x       y       z     vdW  Elec       q    Type
REMARK                         _______ _______ _______ _____ _____    ______ ____
ROOT
ATOM      1  C   UNL     1       3.211   0.613  -1.181  0.00  0.00    +0.372 C 
ATOM      2  O   UNL     1       2.615   1.123  -2.106  0.00  0.00    -0.242 OA
ENDROOT
BRANCH   1   4
ATOM      3  C   UNL     1       1.027  -0.061   0.046  0.00  0.00    +0.099 C 
ATOM      4  C   UNL     1       2.524  -0.045   0.015  0.00  0.00    +0.236 C 
ATOM      5  O   UNL     1       3.247  -0.524   0.886  0.00  0.00    -0.285 OA
ENDBRANCH   1   4
BRANCH   1   6
ATOM      6  O   UNL     1       4.550   0.538  -1.049  0.00  0.00    -0.475 OA
ATOM      7  H   UNL     1       4.766   0.074  -0.206  0.00  0.00    +0.295 HD
ENDBRANCH   1   6
TORSDOF 2
