REMARK  Name = 
REMARK  2 active torsions:
REMARK  status: ('A' for Active; 'I' for Inactive)
REMARK    1  A    between atoms: C_1  and  C_4
REMARK    2  A    between atoms: C_4  and  O_7
REMARK                            x       y       z     vdW  Elec       q    Type
REMARK                         _______ _______ _______ _____ _____    ______ ____
ROOT
ATOM      1  C   UNL     1       1.416  -0.213   0.067  0.00  0.00    +0.059 A 
ATOM      2  C   UNL     1       0.533  -1.300   0.049  0.00  0.00    +0.015 A 
ATOM      3  C   UNL     1       0.911   1.094   0.029  0.00  0.00    +0.015 A 
ATOM      4  C   UNL     1      -0.846  -1.083   0.020  0.00  0.00    +0.001 A 
ATOM      5  C   UNL     1      -0.470   1.305   0.005  0.00  0.00    +0.001 A 
ATOM      6  C   UNL     1      -1.346   0.219   0.003  0.00  0.00    +0.000 A 
ENDROOT
BRANCH   1   7
ATOM      7  C   UNL     1       2.873  -0.499   0.074  0.00  0.00    +0.337 C 
ATOM      8  O   UNL     1       3.354  -1.502  -0.424  0.00  0.00    -0.245 OA
BRANCH   7   9
ATOM      9  O   UNL     1       3.611   0.428   0.722  0.00  0.00    -0.477 OA
ATOM     10  H   UNL     1       3.099   1.078   1.235  0.00  0.00    +0.295 HD
ENDBRANCH   7   9
ENDBRANCH   1   7
TORSDOF 2
