REMARK  Name = 
REMARK  5 active torsions:
REMARK  status: ('A' for Active; 'I' for Inactive)
REMARK    1  A    between atoms: C1*_1  and  N1_9
REMARK    2  A    between atoms: C4*_4  and  C5*_6
REMARK    3  A    between atoms: C3*_5  and  O3*_7
REMARK    4  A    between atoms: C5*_6  and  O5*_8
REMARK    5  A    between atoms: C5_14  and  C5M_16
REMARK                            x       y       z     vdW  Elec       q    Type
REMARK                         _______ _______ _______ _____ _____    ______ ____
ROOT
ATOM      1  C1*   T A   1       1.160  -0.847  -0.337  0.00  0.00    +0.226 C 
ATOM      2  O4*   T A   1       1.325   0.578  -0.193  0.00  0.00    -0.348 OA
ATOM      3  C2*   T A   1      -0.017  -1.252   0.542  0.00  0.00    +0.088 C 
ATOM      4  C4*   T A   1       0.148   1.121   0.455  0.00  0.00    +0.175 C 
ATOM      5  C3*   T A   1      -0.875  -0.008   0.514  0.00  0.00    +0.150 C 
ENDROOT
BRANCH   1   6
ATOM      6  N1    T A   1       2.399  -1.543  -0.021  0.00  0.00    -0.274 N 
ATOM      7  C2    T A   1       2.615  -2.773  -0.633  0.00  0.00    +0.331 A 
ATOM      8  C6    T A   1       3.319  -1.008   0.858  0.00  0.00    +0.101 A 
ATOM      9  N3    T A   1       3.810  -3.375  -0.348  0.00  0.00    -0.275 N 
ATOM     10  O2    T A   1       1.811  -3.311  -1.392  0.00  0.00    -0.246 OA
ATOM     11  C5    T A   1       4.496  -1.587   1.117  0.00  0.00    +0.030 A 
ATOM     12  C4    T A   1       4.803  -2.869   0.441  0.00  0.00    +0.257 A 
ATOM     13  C5M   T A   1       5.529  -1.010   2.028  0.00  0.00    +0.051 C 
ATOM     14  O4    T A   1       5.880  -3.437   0.585  0.00  0.00    -0.267 OA
ATOM     15  H3    T A   1       4.001  -4.249  -0.814  0.00  0.00    +0.173 HD
ENDBRANCH   1   6
BRANCH   5  16
ATOM     16  O3*   T A   1      -1.698  -0.023  -0.654  0.00  0.00    -0.389 OA
ATOM     17  H3*   T A   1      -1.154   0.164  -1.440  0.00  0.00    +0.210 HD
ENDBRANCH   5  16
BRANCH   4  18
ATOM     18  C5*   T A   1       0.559   1.615   1.845  0.00  0.00    +0.190 C 
BRANCH  18  19
ATOM     19  O5*   T A   1       1.581   2.604   1.737  0.00  0.00    -0.392 OA
ATOM     20  H5*   T A   1       2.216   2.276   1.072  0.00  0.00    +0.210 HD
ENDBRANCH  18  19
ENDBRANCH   4  18
TORSDOF 4
