REMARK  Name = 
REMARK  5 active torsions:
REMARK  status: ('A' for Active; 'I' for Inactive)
REMARK    1  A    between atoms: CA_1  and  C_2
REMARK    2  A    between atoms: CA_1  and  CB_3
REMARK    3  A    between atoms: CA_1  and  N_4
REMARK    4  A    between atoms: C_2  and  O_5
REMARK    5  A    between atoms: CB_3  and  SG_7
REMARK                            x       y       z     vdW  Elec       q    Type
REMARK                         _______ _______ _______ _____ _____    ______ ____
ROOT
ATOM      1  CA  CYS A   1       1.039  -0.067   0.107  0.00  0.00    +0.170 C 
ENDROOT
BRANCH   1   2
ATOM      2  N   CYS A   1       2.522  -0.057   0.044  0.00  0.00    -0.318 NA
ATOM      3  H1  CYS A   1       2.946  -0.454   0.881  0.00  0.00    +0.119 HD
ATOM      4  H2  CYS A   1       2.915   0.846  -0.199  0.00  0.00    +0.119 HD
ENDBRANCH   1   2
BRANCH   1   5
ATOM      5  C   CYS A   1       0.528   0.490   1.449  0.00  0.00    +0.323 C 
ATOM      6  OXT CYS A   1      -0.550   0.207   1.952  0.00  0.00    -0.249 OA
BRANCH   5   7
ATOM      7  O   CYS A   1       1.373   1.376   2.027  0.00  0.00    -0.480 OA
ATOM      8  H   CYS A   1       2.177   1.500   1.492  0.00  0.00    +0.295 HD
ENDBRANCH   5   7
ENDBRANCH   1   5
BRANCH   1   9
ATOM      9  CB  CYS A   1       0.471  -1.484  -0.084  0.00  0.00    +0.095 C 
BRANCH   9  10
ATOM     10  SG  CYS A   1       0.935  -2.211  -1.692  0.00  0.00    -0.176 S 
ATOM     11  HG  CYS A   1       2.257  -2.038  -1.537  0.00  0.00    +0.102 HD
ENDBRANCH   9  10
ENDBRANCH   1   9
TORSDOF 5
