REMARK  Name = 
REMARK  5 active torsions:
REMARK  status: ('A' for Active; 'I' for Inactive)
REMARK    1  A    between atoms: O_1  and  C_2
REMARK    2  A    between atoms: C_2  and  C_3
REMARK    3  A    between atoms: C_3  and  C_4
REMARK    4  A    between atoms: C_4  and  C_5
REMARK    5  A    between atoms: C_5  and  O_6
REMARK                            x       y       z     vdW  Elec       q    Type
REMARK                         _______ _______ _______ _____ _____    ______ ____
ROOT
ATOM      1  C   UNL     1       3.091  -0.081  -1.246  0.00  0.00    +0.131 C 
ENDROOT
BRANCH   1   2
ATOM      2  C   UNL     1       2.312   0.068   0.032  0.00  0.00    +0.305 C 
ATOM      3  O   UNL     1       1.093   0.078   0.103  0.00  0.00    -0.251 OA
BRANCH   2   4
ATOM      4  O   UNL     1       3.099   0.194   1.122  0.00  0.00    -0.481 OA
ATOM      5  H   UNL     1       4.058   0.170   0.934  0.00  0.00    +0.295 HD
ENDBRANCH   2   4
ENDBRANCH   1   2
BRANCH   1   6
ATOM      6  C   UNL     1       2.154  -0.220  -2.446  0.00  0.00    +0.131 C 
BRANCH   6   7
ATOM      7  C   UNL     1       2.933  -0.371  -3.724  0.00  0.00    +0.305 C 
ATOM      8  O   UNL     1       4.152  -0.382  -3.794  0.00  0.00    -0.251 OA
BRANCH   7   9
ATOM      9  O   UNL     1       2.146  -0.496  -4.814  0.00  0.00    -0.481 OA
ATOM     10  H   UNL     1       1.187  -0.472  -4.625  0.00  0.00    +0.295 HD
ENDBRANCH   7   9
ENDBRANCH   6   7
ENDBRANCH   1   6
TORSDOF 5
