REMARK  Name = 
REMARK  27 active torsions:
REMARK  status: ('A' for Active; 'I' for Inactive)
REMARK    1  A    between atoms: O_1  and  C_2
REMARK    2  A    between atoms: C_2  and  CA_3
REMARK    3  A    between atoms: CA_3  and  CB_4
REMARK    4  A    between atoms: CA_3  and  N_16
REMARK    5  A    between atoms: CB_4  and  CG_5
REMARK    6  A    between atoms: CG_5  and  CD_6
REMARK    7  A    between atoms: N_7  and  CA_8
REMARK    8  A    between atoms: CA_8  and  C_9
REMARK    9  A    between atoms: CA_8  and  CB_17
REMARK   10  A    between atoms: N_10  and  CA_11
REMARK   11  A    between atoms: CA_11  and  C_12
REMARK   12  A    between atoms: C_12  and  O_13
REMARK   13  A    between atoms: CB_17  and  SG_20
REMARK   14  A    between atoms: SG_20  and  SG_21
REMARK   15  A    between atoms: SG_21  and  CB_22
REMARK   16  A    between atoms: CB_22  and  CA_23
REMARK   17  A    between atoms: CA_23  and  C_24
REMARK   18  A    between atoms: CA_23  and  N_25
REMARK   19  A    between atoms: N_26  and  CA_27
REMARK   20  A    between atoms: CA_27  and  C_28
REMARK   21  A    between atoms: C_28  and  O_30
REMARK   22  A    between atoms: CD_32  and  CG_33
REMARK   23  A    between atoms: CG_33  and  CB_35
REMARK   24  A    between atoms: CB_35  and  CA_36
REMARK   25  A    between atoms: CA_36  and  C_37
REMARK   26  A    between atoms: CA_36  and  N_38
REMARK   27  A    between atoms: C_37  and  O_39
REMARK                            x       y       z     vdW  Elec       q    Type
REMARK                         _______ _______ _______ _____ _____    ______ ____
ROOT
ATOM      1  SG  GLN A   1      -1.374  -2.011  -1.321  0.00  0.00    -0.091 S 
ENDROOT
BRANCH   1   2
ATOM      2  SG  GLN A   1      -3.034  -1.276  -0.367  0.00  0.00    -0.091 S 
BRANCH   2   3
ATOM      3  CB  GLN A   1      -4.270  -0.801  -1.650  0.00  0.00    +0.112 C 
BRANCH   3   4
ATOM      4  CA  GLN A   1      -4.738  -1.826  -2.701  0.00  0.00    +0.169 C 
BRANCH   4   5
ATOM      5  N   GLN A   1      -5.580  -1.224  -3.770  0.00  0.00    -0.303 N 
ATOM      6  CD  GLN A   1      -6.631  -0.359  -3.571  0.00  0.00    +0.214 C 
ATOM      7  OE1 GLN A   1      -7.065  -0.099  -2.452  0.00  0.00    -0.276 OA
ATOM      8  H   GLN A   1      -5.456  -1.596  -4.706  0.00  0.00    +0.149 HD
BRANCH   6   9
ATOM      9  CG  GLN A   1      -7.220   0.222  -4.861  0.00  0.00    +0.098 C 
BRANCH   9  10
ATOM     10  CB  GLN A   1      -8.187   1.404  -4.676  0.00  0.00    +0.039 C 
BRANCH  10  11
ATOM     11  CA  GLN A   1      -7.529   2.762  -4.372  0.00  0.00    +0.161 C 
BRANCH  11  12
ATOM     12  N   GLN A   1      -6.686   2.694  -3.169  0.00  0.00    -0.318 NA
ATOM     13  H1  GLN A   1      -7.092   2.139  -2.413  0.00  0.00    +0.119 HD
ATOM     14  H2  GLN A   1      -6.277   3.576  -2.877  0.00  0.00    +0.119 HD
ENDBRANCH  11  12
BRANCH  11  15
ATOM     15  C   GLN A   1      -8.632   3.838  -4.263  0.00  0.00    +0.322 C 
ATOM     16  OXT GLN A   1      -9.356   4.175  -5.191  0.00  0.00    -0.249 OA
BRANCH  15  17
ATOM     17  O   GLN A   1      -8.742   4.385  -3.028  0.00  0.00    -0.480 OA
ATOM     18  H   GLN A   1      -8.121   3.955  -2.408  0.00  0.00    +0.295 HD
ENDBRANCH  15  17
ENDBRANCH  11  15
ENDBRANCH  10  11
ENDBRANCH   9  10
ENDBRANCH   6   9
ENDBRANCH   4   5
BRANCH   4  19
ATOM     19  C   GLN A   1      -5.397  -3.095  -2.115  0.00  0.00    +0.235 C 
ATOM     20  N   GLY A   2      -6.503  -2.948  -1.319  0.00  0.00    -0.303 N 
ATOM     21  O   GLN A   1      -4.940  -4.221  -2.322  0.00  0.00    -0.274 OA
ATOM     22  H   GLY A   2      -6.948  -2.032  -1.302  0.00  0.00    +0.149 HD
BRANCH  20  23
ATOM     23  CA  GLY A   2      -7.314  -4.092  -0.885  0.00  0.00    +0.224 C 
BRANCH  23  24
ATOM     24  C   GLY A   2      -6.738  -5.003   0.208  0.00  0.00    +0.322 C 
ATOM     25  OXT GLY A   2      -7.443  -5.573   1.032  0.00  0.00    -0.249 OA
BRANCH  24  26
ATOM     26  O   GLY A   2      -5.414  -5.250   0.110  0.00  0.00    -0.480 OA
ATOM     27  H   GLY A   2      -5.037  -4.904  -0.733  0.00  0.00    +0.295 HD
ENDBRANCH  24  26
ENDBRANCH  23  24
ENDBRANCH  20  23
ENDBRANCH   4  19
ENDBRANCH   3   4
ENDBRANCH   2   3
ENDBRANCH   1   2
BRANCH   1  28
ATOM     28  CB  GLN A   1      -0.290  -0.589  -1.806  0.00  0.00    +0.112 C 
BRANCH  28  29
ATOM     29  CA  GLN A   1       0.041   0.529  -0.796  0.00  0.00    +0.169 C 
BRANCH  29  31
ATOM     30  CD  GLN A   1       1.992   1.636  -2.019  0.00  0.00    +0.214 C 
ATOM     31  N   GLN A   1       0.765   1.686  -1.401  0.00  0.00    -0.303 N 
ATOM     32  OE1 GLN A   1       2.683   0.620  -2.049  0.00  0.00    -0.276 OA
ATOM     33  H   GLN A   1       0.326   2.592  -1.286  0.00  0.00    +0.149 HD
BRANCH  30  34
ATOM     34  CG  GLN A   1       2.453   2.926  -2.682  0.00  0.00    +0.098 C 
BRANCH  34  35
ATOM     35  CB  GLN A   1       3.275   3.883  -1.814  0.00  0.00    +0.039 C 
BRANCH  35  36
ATOM     36  CA  GLN A   1       4.698   3.460  -1.399  0.00  0.00    +0.161 C 
BRANCH  36  37
ATOM     37  N   GLN A   1       5.518   3.004  -2.535  0.00  0.00    -0.318 NA
ATOM     38  H1  GLN A   1       5.209   2.123  -2.941  0.00  0.00    +0.119 HD
ATOM     39  H2  GLN A   1       6.517   3.012  -2.331  0.00  0.00    +0.119 HD
ENDBRANCH  36  37
BRANCH  36  40
ATOM     40  C   GLN A   1       4.677   2.478  -0.218  0.00  0.00    +0.322 C 
ATOM     41  OXT GLN A   1       3.988   2.632   0.781  0.00  0.00    -0.249 OA
BRANCH  40  42
ATOM     42  O   GLN A   1       5.506   1.419  -0.356  0.00  0.00    -0.480 OA
ATOM     43  H   GLN A   1       5.965   1.444  -1.216  0.00  0.00    +0.295 HD
ENDBRANCH  40  42
ENDBRANCH  36  40
ENDBRANCH  35  36
ENDBRANCH  34  35
ENDBRANCH  30  34
ENDBRANCH  29  31
BRANCH  29  44
ATOM     44  C   GLN A   1       0.765   0.034   0.471  0.00  0.00    +0.235 C 
ATOM     45  N   GLY A   2       1.987  -0.566   0.303  0.00  0.00    -0.303 N 
ATOM     46  O   GLN A   1       0.249   0.102   1.587  0.00  0.00    -0.274 OA
ATOM     47  H   GLY A   2       2.460  -0.348  -0.576  0.00  0.00    +0.149 HD
BRANCH  45  48
ATOM     48  CA  GLY A   2       2.887  -0.849   1.423  0.00  0.00    +0.224 C 
BRANCH  48  49
ATOM     49  C   GLY A   2       2.490  -1.973   2.386  0.00  0.00    +0.322 C 
ATOM     50  OXT GLY A   2       3.313  -2.661   2.979  0.00  0.00    -0.249 OA
BRANCH  49  51
ATOM     51  O   GLY A   2       1.170  -2.081   2.646  0.00  0.00    -0.480 OA
ATOM     52  H   GLY A   2       0.655  -1.322   2.282  0.00  0.00    +0.295 HD
ENDBRANCH  49  51
ENDBRANCH  48  49
ENDBRANCH  45  48
ENDBRANCH  29  44
ENDBRANCH  28  29
ENDBRANCH   1  28
TORSDOF 27
