REMARK  Name = 
REMARK  5 active torsions:
REMARK  status: ('A' for Active; 'I' for Inactive)
REMARK    1  A    between atoms: CG_2  and  CB_5
REMARK    2  A    between atoms: CB_5  and  CA_9
REMARK    3  A    between atoms: CA_9  and  N_11
REMARK    4  A    between atoms: CA_9  and  C_12
REMARK    5  A    between atoms: C_12  and  O_13
REMARK                            x       y       z     vdW  Elec       q    Type
REMARK                         _______ _______ _______ _____ _____    ______ ____
ROOT
ATOM      1  CD2 TRP A   1       0.086  -6.097   1.490  0.00  0.00    +0.003 A 
ATOM      2  CG  TRP A   1       0.219  -4.732   1.926  0.00  0.00    -0.020 A 
ATOM      3  CE2 TRP A   1       0.794  -6.894   2.394  0.00  0.00    +0.047 A 
ATOM      4  CE3 TRP A   1      -0.522  -6.733   0.387  0.00  0.00    +0.010 A 
ATOM      5  NE1 TRP A   1       1.291  -6.063   3.369  0.00  0.00    -0.360 N 
ATOM      6  CZ2 TRP A   1       0.953  -8.277   2.235  0.00  0.00    +0.026 A 
ATOM      7  CZ3 TRP A   1      -0.384  -8.120   0.221  0.00  0.00    +0.001 A 
ATOM      8  CH2 TRP A   1       0.351  -8.877   1.127  0.00  0.00    +0.002 A 
ATOM      9  CD1 TRP A   1       0.943  -4.768   3.103  0.00  0.00    +0.087 A 
ATOM     10  HE1 TRP A   1       1.876  -6.368   4.135  0.00  0.00    +0.165 HD
ENDROOT
BRANCH   2  11
ATOM     11  CB  TRP A   1      -0.191  -3.478   1.195  0.00  0.00    +0.067 C 
BRANCH  11  12
ATOM     12  CA  TRP A   1      -1.443  -2.734   1.684  0.00  0.00    +0.165 C 
BRANCH  12  13
ATOM     13  N   TRP A   1      -1.445  -2.370   3.118  0.00  0.00    -0.318 NA
ATOM     14  H1  TRP A   1      -1.326  -3.176   3.721  0.00  0.00    +0.119 HD
ATOM     15  H2  TRP A   1      -2.341  -1.933   3.354  0.00  0.00    +0.119 HD
ENDBRANCH  12  13
BRANCH  12  16
ATOM     16  C   TRP A   1      -2.733  -3.460   1.287  0.00  0.00    +0.322 C 
ATOM     17  OXT TRP A   1      -3.459  -3.098   0.371  0.00  0.00    -0.249 OA
BRANCH  16  18
ATOM     18  O   TRP A   1      -3.035  -4.526   2.062  0.00  0.00    -0.480 OA
ATOM     19  H   TRP A   1      -2.321  -4.748   2.690  0.00  0.00    +0.295 HD
ENDBRANCH  16  18
ENDBRANCH  12  16
ENDBRANCH  11  12
ENDBRANCH   2  11
TORSDOF 5
