REMARK  Name = 
REMARK  4 active torsions:
REMARK  status: ('A' for Active; 'I' for Inactive)
REMARK    1  A    between atoms: C_1  and  C_2
REMARK    2  A    between atoms: C_1  and  C_3
REMARK    3  A    between atoms: C_2  and  O_5
REMARK    4  A    between atoms: C_3  and  O_6
REMARK                            x       y       z     vdW  Elec       q    Type
REMARK                         _______ _______ _______ _____ _____    ______ ____
ROOT
ATOM      1  C   UNL     1       0.924   0.199  -0.105  0.00  0.00    +0.184 C 
ATOM      2  O   UNL     1       2.127   0.480  -0.115  0.00  0.00    -0.293 OA
ENDROOT
BRANCH   1   3
ATOM      3  C   UNL     1       0.207  -0.317  -1.344  0.00  0.00    +0.232 C 
BRANCH   3   4
ATOM      4  O   UNL     1       1.093  -0.608  -2.411  0.00  0.00    -0.387 OA
ATOM      5  H   UNL     1       1.869  -0.023  -2.297  0.00  0.00    +0.210 HD
ENDBRANCH   3   4
ENDBRANCH   1   3
BRANCH   1   6
ATOM      6  C   UNL     1       0.072   0.355   1.147  0.00  0.00    +0.232 C 
BRANCH   6   7
ATOM      7  O   UNL     1       0.649   1.235   2.095  0.00  0.00    -0.387 OA
ATOM      8  H   UNL     1       1.605   1.035   2.118  0.00  0.00    +0.210 HD
ENDBRANCH   6   7
ENDBRANCH   1   6
TORSDOF 4
