REMARK  Name = 
REMARK  6 active torsions:
REMARK  status: ('A' for Active; 'I' for Inactive)
REMARK    1  A    between atoms: C_1  and  C_2
REMARK    2  A    between atoms: C_1  and  C_3
REMARK    3  A    between atoms: C_2  and  C_5
REMARK    4  A    between atoms: C_3  and  O_6
REMARK    5  A    between atoms: C_5  and  C_8
REMARK    6  A    between atoms: C_8  and  O_10
REMARK                            x       y       z     vdW  Elec       q    Type
REMARK                         _______ _______ _______ _____ _____    ______ ____
ROOT
ATOM      1  C   UNL     1       1.082  -0.049   0.069  0.00  0.00    +0.240 C 
ATOM      2  O   UNL     1       2.161   0.530  -0.024  0.00  0.00    -0.285 OA
ENDROOT
BRANCH   1   3
ATOM      3  C   UNL     1       0.400  -0.067   1.439  0.00  0.00    +0.373 C 
ATOM      4  O   UNL     1      -0.712  -0.516   1.626  0.00  0.00    -0.242 OA
BRANCH   3   5
ATOM      5  O   UNL     1       1.182   0.521   2.363  0.00  0.00    -0.475 OA
ATOM      6  H   UNL     1       2.031   0.795   1.941  0.00  0.00    +0.295 HD
ENDBRANCH   3   5
ENDBRANCH   1   3
BRANCH   1   7
ATOM      7  C   UNL     1       0.330  -0.678  -1.078  0.00  0.00    +0.098 C 
BRANCH   7   8
ATOM      8  C   UNL     1       1.280  -1.235  -2.134  0.00  0.00    +0.128 C 
BRANCH   8   9
ATOM      9  C   UNL     1       2.152  -2.328  -1.562  0.00  0.00    +0.305 C 
ATOM     10  O   UNL     1       2.115  -2.703  -0.400  0.00  0.00    -0.251 OA
BRANCH   9  11
ATOM     11  O   UNL     1       2.986  -2.867  -2.475  0.00  0.00    -0.481 OA
ATOM     12  H   UNL     1       2.920  -2.470  -3.364  0.00  0.00    +0.295 HD
ENDBRANCH   9  11
ENDBRANCH   8   9
ENDBRANCH   7   8
ENDBRANCH   1   7
TORSDOF 6
