REMARK  Name = 
REMARK  14 active torsions:
REMARK  status: ('A' for Active; 'I' for Inactive)
REMARK    1  A    between atoms: C_1  and  O_4
REMARK    2  A    between atoms: C_3  and  O_7
REMARK    3  A    between atoms: O_4  and  P_8
REMARK    4  A    between atoms: C_5  and  C_9
REMARK    5  A    between atoms: C_6  and  O_10
REMARK    6  A    between atoms: P_8  and  O_11
REMARK    7  A    between atoms: P_8  and  O_12
REMARK    8  A    between atoms: C_9  and  O_14
REMARK    9  A    between atoms: O_11  and  P_15
REMARK   10  A    between atoms: O_14  and  P_16
REMARK   11  A    between atoms: P_15  and  O_17
REMARK   12  A    between atoms: P_15  and  O_18
REMARK   13  A    between atoms: P_16  and  O_20
REMARK   14  A    between atoms: P_16  and  O_21
REMARK                            x       y       z     vdW  Elec       q    Type
REMARK                         _______ _______ _______ _____ _____    ______ ____
ROOT
ATOM      1  C   UNL     1       0.693   1.300   0.413  0.00  0.00    +0.293 C 
ATOM      2  O   UNL     1       1.673   0.262   0.389  0.00  0.00    -0.340 OA
ATOM      3  C   UNL     1      -0.303   1.010  -0.720  0.00  0.00    +0.202 C 
ATOM      4  C   UNL     1       1.231  -0.814  -0.448  0.00  0.00    +0.179 C 
ATOM      5  C   UNL     1      -0.185  -0.492  -0.921  0.00  0.00    +0.179 C 
ENDROOT
BRANCH   3   6
ATOM      6  O   UNL     1      -1.659   1.392  -0.469  0.00  0.00    -0.384 OA
ATOM      7  H   UNL     1      -2.088   0.574  -0.138  0.00  0.00    +0.210 HD
ENDBRANCH   3   6
BRANCH   5   8
ATOM      8  O   UNL     1      -1.194  -1.134  -0.121  0.00  0.00    -0.386 OA
ATOM      9  H   UNL     1      -0.827  -1.956   0.248  0.00  0.00    +0.210 HD
ENDBRANCH   5   8
BRANCH   1  10
ATOM     10  O   UNL     1       0.070   1.325   1.679  0.00  0.00    -0.254 OA
BRANCH  10  11
ATOM     11  P   UNL     1       1.041   1.530   2.932  0.00  0.00    +0.486 P 
ATOM     12  O   UNL     1       2.338   2.234   2.750  0.00  0.00    -0.227 OA
BRANCH  11  13
ATOM     13  O   UNL     1       1.188   0.037   3.511  0.00  0.00    -0.302 OA
ATOM     14  H   UNL     1       0.345  -0.275   3.873  0.00  0.00    +0.222 HD
ENDBRANCH  11  13
BRANCH  11  15
ATOM     15  O   UNL     1       0.102   2.152   4.049  0.00  0.00    -0.186 OA
BRANCH  15  16
ATOM     16  P   UNL     1       0.090   3.689   4.416  0.00  0.00    +0.481 P 
ATOM     17  O   UNL     1       0.595   4.661   3.409  0.00  0.00    -0.227 OA
BRANCH  16  18
ATOM     18  O   UNL     1      -1.443   3.975   4.769  0.00  0.00    -0.302 OA
ATOM     19  H   UNL     1      -1.857   4.496   4.056  0.00  0.00    +0.222 HD
ENDBRANCH  16  18
BRANCH  16  20
ATOM     20  O   UNL     1       0.787   3.789   5.849  0.00  0.00    -0.302 OA
ATOM     21  H   UNL     1       1.760   3.821   5.790  0.00  0.00    +0.222 HD
ENDBRANCH  16  20
ENDBRANCH  15  16
ENDBRANCH  11  15
ENDBRANCH  10  11
ENDBRANCH   1  10
BRANCH   4  22
ATOM     22  C   UNL     1       2.218  -0.945  -1.599  0.00  0.00    +0.206 C 
BRANCH  22  23
ATOM     23  O   UNL     1       2.156   0.224  -2.410  0.00  0.00    -0.284 OA
BRANCH  23  24
ATOM     24  P   UNL     1       3.227   0.122  -3.764  0.00  0.00    +0.472 P 
ATOM     25  O   UNL     1       4.186   0.031  -4.976  0.00  0.00    -0.228 OA
BRANCH  24  26
ATOM     26  O   UNL     1       2.684   1.629  -4.109  0.00  0.00    -0.303 OA
ATOM     27  H   UNL     1       1.840   1.611  -4.591  0.00  0.00    +0.222 HD
ENDBRANCH  24  26
BRANCH  24  28
ATOM     28  O   UNL     1       4.370   0.656  -2.723  0.00  0.00    -0.303 OA
ATOM     29  H   UNL     1       4.440   1.619  -2.861  0.00  0.00    +0.222 HD
ENDBRANCH  24  28
ENDBRANCH  23  24
ENDBRANCH  22  23
ENDBRANCH   4  22
TORSDOF 14
