REMARK  Name = 
REMARK  5 active torsions:
REMARK  status: ('A' for Active; 'I' for Inactive)
REMARK    1  A    between atoms: C_1  and  C_2
REMARK    2  A    between atoms: C_1  and  C_3
REMARK    3  A    between atoms: C_2  and  C_4
REMARK    4  A    between atoms: C_3  and  N_5
REMARK    5  A    between atoms: C_4  and  N_6
REMARK                            x       y       z     vdW  Elec       q    Type
REMARK                         _______ _______ _______ _____ _____    ______ ____
ROOT
ATOM      1  C   UNL     1       1.074   0.077   0.018  0.00  0.00    +0.016 C 
ENDROOT
BRANCH   1   2
ATOM      2  C   UNL     1       0.545  -0.450   1.354  0.00  0.00    +0.016 C 
BRANCH   2   3
ATOM      3  C   UNL     1      -0.982  -0.459   1.375  0.00  0.00    +0.077 C 
BRANCH   3   4
ATOM      4  N   UNL     1      -1.463  -0.965   2.655  0.00  0.00    -0.330 NA
ATOM      5  H   UNL     1      -1.147  -1.925   2.786  0.00  0.00    +0.118 HD
ATOM      6  H   UNL     1      -2.482  -0.999   2.643  0.00  0.00    +0.118 HD
ENDBRANCH   3   4
ENDBRANCH   2   3
ENDBRANCH   1   2
BRANCH   1   7
ATOM      7  C   UNL     1       2.601   0.088  -0.002  0.00  0.00    +0.077 C 
BRANCH   7   8
ATOM      8  N   UNL     1       3.081   0.594  -1.282  0.00  0.00    -0.330 NA
ATOM      9  H   UNL     1       2.766  -0.018  -2.034  0.00  0.00    +0.118 HD
ATOM     10  H   UNL     1       4.100   0.563  -1.297  0.00  0.00    +0.118 HD
ENDBRANCH   7   8
ENDBRANCH   1   7
TORSDOF 5
