REMARK  Name = 
REMARK  11 active torsions:
REMARK  status: ('A' for Active; 'I' for Inactive)
REMARK    1  A    between atoms: C_3  and  C_9
REMARK    2  A    between atoms: C_7  and  C_14
REMARK    3  A    between atoms: C_11  and  C_17
REMARK    4  A    between atoms: C_14  and  C_18
REMARK    5  A    between atoms: C_14  and  C_19
REMARK    6  A    between atoms: C_18  and  C_22
REMARK    7  A    between atoms: C_22  and  C_24
REMARK    8  A    between atoms: C_23  and  O_25
REMARK    9  A    between atoms: C_24  and  C_26
REMARK   10  A    between atoms: C_26  and  C_27
REMARK   11  A    between atoms: C_26  and  C_28
REMARK                            x       y       z     vdW  Elec       q    Type
REMARK                         _______ _______ _______ _____ _____    ______ ____
ROOT
ATOM      1  C   UNL     1      26.981 -18.859   0.000  0.00  0.00    +0.009 C 
ATOM      2  C   UNL     1      25.810 -19.534   0.000  0.00  0.00    +0.010 C 
ATOM      3  C   UNL     1      26.981 -17.508   0.000  0.00  0.00    -0.007 C 
ATOM      4  C   UNL     1      29.322 -18.859   0.000  0.00  0.00    -0.005 C 
ATOM      5  C   UNL     1      24.645 -18.859   0.000  0.00  0.00    +0.013 C 
ATOM      6  C   UNL     1      25.804 -20.886   0.000  0.00  0.00    +0.021 C 
ATOM      7  C   UNL     1      28.163 -16.832   0.000  0.00  0.00    +0.012 C 
ATOM      8  C   UNL     1      25.810 -16.832   0.000  0.00  0.00    -0.001 C 
ATOM      9  C   UNL     1      26.975 -16.156   0.000  0.00  0.00    -0.001 C 
ATOM     10  C   UNL     1      29.322 -17.508   0.000  0.00  0.00    -0.004 C 
ATOM     11  C   UNL     1      23.463 -19.534   0.000  0.00  0.00    +0.011 C 
ATOM     12  C   UNL     1      24.645 -17.508   0.000  0.00  0.00    -0.004 C 
ATOM     13  C   UNL     1      24.645 -21.561   0.000  0.00  0.00    -0.035 C 
ATOM     14  C   UNL     1      23.463 -20.886   0.000  0.00  0.00    -0.047 C 
ATOM     15  C   UNL     1      22.298 -18.859   0.000  0.00  0.00    +0.006 C 
ATOM     16  C   UNL     1      23.451 -18.183   0.000  0.00  0.00    +0.004 C 
ATOM     17  C   UNL     1      22.298 -21.561   0.000  0.00  0.00    +0.055 C 
ATOM     18  C   UNL     1      21.128 -19.534   0.000  0.00  0.00    +0.034 C 
ATOM     19  C   UNL     1      21.128 -20.886   0.000  0.00  0.00    +0.156 C 
ENDROOT
BRANCH   7  20
ATOM     20  C   UNL     1      28.163 -15.481   0.000  0.00  0.00    -0.004 C 
ATOM     21  C   UNL     1      26.963 -14.788   0.000  0.00  0.00    -0.000 C 
BRANCH  20  22
ATOM     22  C   UNL     1      29.357 -14.793   0.000  0.00  0.00    -0.000 C 
BRANCH  22  23
ATOM     23  C   UNL     1      30.551 -15.486   0.000  0.00  0.00    -0.000 C 
BRANCH  23  24
ATOM     24  C   UNL     1      31.745 -14.793   0.000  0.00  0.00    -0.000 C 
BRANCH  24  25
ATOM     25  C   UNL     1      32.945 -15.486   0.000  0.00  0.00    -0.000 C 
ATOM     26  C   UNL     1      34.139 -14.799   0.000  0.00  0.00    +0.000 C 
ATOM     27  C   UNL     1      32.939 -17.076   0.000  0.00  0.00    +0.000 C 
ENDBRANCH  24  25
ENDBRANCH  23  24
ENDBRANCH  22  23
ENDBRANCH  20  22
ENDBRANCH   7  20
BRANCH  19  28
ATOM     28  O   UNL     1      19.945 -21.561   0.000  0.00  0.00    -0.223 OA
ATOM     29  H   UNL     1      19.107 -21.073   0.000  0.00  0.00    +0.000 HD
ENDBRANCH  19  28
TORSDOF 6
