REMARK  Name = 
REMARK  5 active torsions:
REMARK  status: ('A' for Active; 'I' for Inactive)
REMARK    1  A    between atoms: C_1  and  C_4
REMARK    2  A    between atoms: C_2  and  C_6
REMARK    3  A    between atoms: C_3  and  O_8
REMARK    4  A    between atoms: C_6  and  O_11
REMARK    5  A    between atoms: C_7  and  C_12
REMARK                            x       y       z     vdW  Elec       q    Type
REMARK                         _______ _______ _______ _____ _____    ______ ____
ROOT
ATOM      1  C   UNL     1       0.414   1.497   0.063  0.00  0.00    +0.064 A 
ATOM      2  C   UNL     1       1.724   0.995   0.025  0.00  0.00    +0.010 A 
ATOM      3  C   UNL     1      -0.681   0.617   0.023  0.00  0.00    +0.148 A 
ATOM      4  C   UNL     1       1.850  -0.391   0.003  0.00  0.00    +0.117 A 
ATOM      5  C   UNL     1      -0.440  -0.753  -0.001  0.00  0.00    +0.080 A 
ATOM      6  N   UNL     1       0.817  -1.260  -0.009  0.00  0.00    -0.256 NA
ATOM      7  C   UNL     1      -1.548  -1.762  -0.001  0.00  0.00    +0.069 C 
ENDROOT
BRANCH   1   8
ATOM      8  C   UNL     1       0.145   2.948   0.180  0.00  0.00    +0.262 C 
ATOM      9  O   UNL     1      -0.955   3.403  -0.122  0.00  0.00    -0.296 OA
ENDBRANCH   1   8
BRANCH   3  10
ATOM     10  O   UNL     1      -1.979   1.058   0.026  0.00  0.00    -0.504 OA
ATOM     11  H   UNL     1      -1.975   2.037  -0.085  0.00  0.00    +0.292 HD
ENDBRANCH   3  10
BRANCH   2  12
ATOM     12  C   UNL     1       2.985   1.810   0.061  0.00  0.00    +0.193 C 
BRANCH  12  13
ATOM     13  O   UNL     1       2.844   3.041  -0.625  0.00  0.00    -0.390 OA
ATOM     14  H   UNL     1       3.029   2.878  -1.567  0.00  0.00    +0.210 HD
ENDBRANCH  12  13
ENDBRANCH   2  12
TORSDOF 4
