REMARK  Name = 
REMARK  4 active torsions:
REMARK  status: ('A' for Active; 'I' for Inactive)
REMARK    1  A    between atoms: C_1  and  C_2
REMARK    2  A    between atoms: C_1  and  C_3
REMARK    3  A    between atoms: C_2  and  O_4
REMARK    4  A    between atoms: C_3  and  C_6
REMARK                            x       y       z     vdW  Elec       q    Type
REMARK                         _______ _______ _______ _____ _____    ______ ____
ROOT
ATOM      1  C   UNL     1       0.506   1.361  -0.794  0.00  0.00    +0.305 C 
ATOM      2  O   UNL     1       1.068   1.937  -1.714  0.00  0.00    -0.251 OA
ENDROOT
BRANCH   1   3
ATOM      3  O   UNL     1      -0.701   1.757  -0.330  0.00  0.00    -0.481 OA
ATOM      4  H   UNL     1      -1.054   1.208   0.395  0.00  0.00    +0.295 HD
ENDBRANCH   1   3
BRANCH   1   5
ATOM      5  C   UNL     1       1.042   0.133  -0.092  0.00  0.00    +0.120 C 
BRANCH   5   6
ATOM      6  C   UNL     1       2.570   0.067  -0.073  0.00  0.00    +0.008 C 
ATOM      7  C   UNL     1       3.204   1.217   0.698  0.00  0.00    +0.004 C 
ENDBRANCH   5   6
ENDBRANCH   1   5
TORSDOF 3
