REMARK  Name = 
REMARK  7 active torsions:
REMARK  status: ('A' for Active; 'I' for Inactive)
REMARK    1  A    between atoms: C_1  and  N_12
REMARK    2  A    between atoms: C_2  and  O_5
REMARK    3  A    between atoms: C_3  and  O_7
REMARK    4  A    between atoms: C_4  and  O_9
REMARK    5  A    between atoms: C_8  and  C_10
REMARK    6  A    between atoms: C_10  and  O_11
REMARK    7  A    between atoms: C_13  and  C_14
REMARK                            x       y       z     vdW  Elec       q    Type
REMARK                         _______ _______ _______ _____ _____    ______ ____
ROOT
ATOM      1  C   UNL     1       0.761   1.182  -0.287  0.00  0.00    +0.160 C 
ATOM      2  C   UNL     1       1.452  -0.118   0.206  0.00  0.00    +0.171 C 
ATOM      3  C   UNL     1      -0.690   1.197   0.246  0.00  0.00    +0.270 C 
ATOM      4  C   UNL     1       0.615  -1.368  -0.127  0.00  0.00    +0.176 C 
ATOM      5  O   UNL     1      -1.403   0.041  -0.181  0.00  0.00    -0.341 OA
ATOM      6  C   UNL     1      -0.855  -1.206   0.309  0.00  0.00    +0.178 C 
ENDROOT
BRANCH   1   7
ATOM      7  N   UNL     1       0.797   1.341  -1.749  0.00  0.00    -0.305 N 
ATOM      8  C   UNL     1       1.983   1.603  -2.413  0.00  0.00    +0.210 C 
ATOM      9  C   UNL     1       1.857   1.698  -3.911  0.00  0.00    +0.109 C 
ATOM     10  O   UNL     1       3.047   1.765  -1.831  0.00  0.00    -0.276 OA
ATOM     11  H   UNL     1      -0.041   1.178  -2.296  0.00  0.00    +0.149 HD
ENDBRANCH   1   7
BRANCH   2  12
ATOM     12  O   UNL     1       1.658  -0.105   1.628  0.00  0.00    -0.387 OA
ATOM     13  H   UNL     1       1.601   0.803   1.973  0.00  0.00    +0.210 HD
ENDBRANCH   2  12
BRANCH   3  14
ATOM     14  O   UNL     1      -1.400   2.345  -0.191  0.00  0.00    -0.365 OA
ATOM     15  H   UNL     1      -1.168   2.496  -1.120  0.00  0.00    +0.213 HD
ENDBRANCH   3  14
BRANCH   4  16
ATOM     16  O   UNL     1       0.663  -1.631  -1.536  0.00  0.00    -0.387 OA
ATOM     17  H   UNL     1       0.117  -0.959  -1.978  0.00  0.00    +0.210 HD
ENDBRANCH   4  16
BRANCH   6  18
ATOM     18  C   UNL     1      -1.070  -1.376   1.824  0.00  0.00    +0.190 C 
BRANCH  18  19
ATOM     19  O   UNL     1      -2.459  -1.270   2.137  0.00  0.00    -0.392 OA
ATOM     20  H   UNL     1      -2.789  -0.465   1.697  0.00  0.00    +0.210 HD
ENDBRANCH  18  19
ENDBRANCH   6  18
TORSDOF 6
