REMARK  Name = 
REMARK  5 active torsions:
REMARK  status: ('A' for Active; 'I' for Inactive)
REMARK    1  A    between atoms: O_1  and  C_2
REMARK    2  A    between atoms: C_2  and  C_3
REMARK    3  A    between atoms: C_3  and  C_4
REMARK    4  A    between atoms: C_4  and  C_5
REMARK    5  A    between atoms: C_5  and  O_6
REMARK                            x       y       z     vdW  Elec       q    Type
REMARK                         _______ _______ _______ _____ _____    ______ ____
ROOT
ATOM      1  C   UNL     1       2.066  -1.515   2.000  0.00  0.00    +0.250 C 
ATOM      2  O   UNL     1       2.493  -2.247   2.901  0.00  0.00    -0.285 OA
ENDROOT
BRANCH   1   3
ATOM      3  C   UNL     1       0.551  -1.447   1.913  0.00  0.00    +0.373 C 
ATOM      4  O   UNL     1      -0.051  -0.782   1.096  0.00  0.00    -0.242 OA
BRANCH   3   5
ATOM      5  O   UNL     1      -0.018  -2.216   2.857  0.00  0.00    -0.475 OA
ATOM      6  H   UNL     1       0.685  -2.655   3.397  0.00  0.00    +0.295 HD
ENDBRANCH   3   5
ENDBRANCH   1   3
BRANCH   1   7
ATOM      7  C   UNL     1       2.976  -0.770   1.084  0.00  0.00    +0.206 C 
BRANCH   7   8
ATOM      8  C   UNL     1       2.641   0.149  -0.046  0.00  0.00    +0.313 C 
ATOM      9  O   UNL     1       3.561   0.665  -0.679  0.00  0.00    -0.251 OA
BRANCH   8  10
ATOM     10  O   UNL     1       1.387   0.429  -0.393  0.00  0.00    -0.480 OA
ATOM     11  H   UNL     1       0.622   0.039   0.086  0.00  0.00    +0.295 HD
ENDBRANCH   8  10
ENDBRANCH   7   8
ENDBRANCH   1   7
TORSDOF 5
