REMARK  Name = 
REMARK  0 active torsions:
REMARK  status: ('A' for Active; 'I' for Inactive)
REMARK                            x       y       z     vdW  Elec       q    Type
REMARK                         _______ _______ _______ _____ _____    ______ ____
ROOT
ATOM      1  N   UNL     1       0.041   0.931  -0.001  0.00  0.00    -0.275 N 
ATOM      2  C   UNL     1       1.239   0.275  -0.009  0.00  0.00    +0.254 A 
ATOM      3  C   UNL     1      -1.186   0.331   0.009  0.00  0.00    +0.327 A 
ATOM      4  C   UNL     1       1.170  -1.201  -0.016  0.00  0.00    +0.088 A 
ATOM      5  O   UNL     1       2.319   0.854  -0.010  0.00  0.00    -0.268 OA
ATOM      6  N   UNL     1      -1.174  -1.039   0.014  0.00  0.00    -0.314 N 
ATOM      7  O   UNL     1      -2.232   0.971   0.015  0.00  0.00    -0.247 OA
ATOM      8  C   UNL     1      -0.030  -1.786  -0.001  0.00  0.00    +0.092 A 
ATOM      9  H   UNL     1       0.061   1.938   0.002  0.00  0.00    +0.173 HD
ATOM     10  H   UNL     1      -2.084  -1.486   0.024  0.00  0.00    +0.170 HD
ENDROOT
TORSDOF 0
