REMARK  Name = 
REMARK  14 active torsions:
REMARK  status: ('A' for Active; 'I' for Inactive)
REMARK    1  A    between atoms: N_7  and  C_19
REMARK    2  A    between atoms: C_12  and  C_18
REMARK    3  A    between atoms: C_13  and  C_17
REMARK    4  A    between atoms: C_19  and  C_20
REMARK    5  A    between atoms: C_20  and  C_21
REMARK    6  A    between atoms: C_20  and  O_25
REMARK    7  A    between atoms: C_21  and  C_22
REMARK    8  A    between atoms: C_21  and  O_27
REMARK    9  A    between atoms: C_22  and  C_23
REMARK   10  A    between atoms: C_22  and  O_26
REMARK   11  A    between atoms: C_23  and  O_24
REMARK   12  A    between atoms: O_24  and  P_28
REMARK   13  A    between atoms: P_28  and  O_29
REMARK   14  A    between atoms: P_28  and  O_31
REMARK                            x       y       z     vdW  Elec       q    Type
REMARK                         _______ _______ _______ _____ _____    ______ ____
ROOT
ATOM      1  N   UNL     1      -3.438  -1.025  -0.584  0.00  0.00    -0.272 N 
ATOM      2  C   UNL     1      -3.510   0.338  -0.665  0.00  0.00    +0.351 A 
ATOM      3  N   UNL     1      -2.370   1.086  -0.641  0.00  0.00    -0.173 NA
ATOM      4  C   UNL     1      -1.197   0.590  -0.399  0.00  0.00    +0.170 A 
ATOM      5  C   UNL     1      -1.082  -0.903  -0.191  0.00  0.00    +0.171 A 
ATOM      6  C   UNL     1      -2.358  -1.695  -0.113  0.00  0.00    +0.282 A 
ATOM      7  N   UNL     1      -0.038   1.353  -0.256  0.00  0.00    -0.320 N 
ATOM      8  C   UNL     1       1.210   0.683  -0.190  0.00  0.00    +0.069 A 
ATOM      9  C   UNL     1       1.229  -0.722  -0.113  0.00  0.00    +0.089 A 
ATOM     10  N   UNL     1       0.062  -1.510  -0.081  0.00  0.00    -0.237 NA
ATOM     11  C   UNL     1       2.449   1.351  -0.201  0.00  0.00    +0.031 A 
ATOM     12  C   UNL     1       3.676   0.675  -0.083  0.00  0.00    -0.045 A 
ATOM     13  C   UNL     1       3.682  -0.722  -0.029  0.00  0.00    -0.045 A 
ATOM     14  C   UNL     1       2.453  -1.405  -0.040  0.00  0.00    +0.033 A 
ATOM     15  O   UNL     1      -2.424  -2.801   0.406  0.00  0.00    -0.265 OA
ATOM     16  O   UNL     1      -4.622   0.859  -0.633  0.00  0.00    -0.245 OA
ATOM     17  C   UNL     1       4.939  -1.539   0.032  0.00  0.00    +0.044 C 
ATOM     18  C   UNL     1       4.940   1.492  -0.029  0.00  0.00    +0.044 C 
ATOM     19  H   UNL     1      -4.330  -1.482  -0.458  0.00  0.00    +0.174 HD
ENDROOT
BRANCH   7  20
ATOM     20  C   UNL     1      -0.039   2.817  -0.119  0.00  0.00    +0.158 C 
BRANCH  20  21
ATOM     21  C   UNL     1      -1.216   3.450   0.638  0.00  0.00    +0.165 C 
BRANCH  21  22
ATOM     22  O   UNL     1      -1.025   4.879   0.650  0.00  0.00    -0.387 OA
ATOM     23  H   UNL     1      -0.377   5.111   1.340  0.00  0.00    +0.210 HD
ENDBRANCH  21  22
BRANCH  21  24
ATOM     24  C   UNL     1      -1.420   2.962   2.101  0.00  0.00    +0.175 C 
BRANCH  24  25
ATOM     25  O   UNL     1      -1.524   1.536   2.238  0.00  0.00    -0.387 OA
ATOM     26  H   UNL     1      -2.455   1.269   2.195  0.00  0.00    +0.210 HD
ENDBRANCH  24  25
BRANCH  24  27
ATOM     27  C   UNL     1      -2.641   3.647   2.770  0.00  0.00    +0.172 C 
BRANCH  27  28
ATOM     28  O   UNL     1      -2.794   3.147   4.110  0.00  0.00    -0.387 OA
ATOM     29  H   UNL     1      -2.661   2.185   4.101  0.00  0.00    +0.210 HD
ENDBRANCH  27  28
BRANCH  27  30
ATOM     30  C   UNL     1      -3.927   3.401   1.980  0.00  0.00    +0.206 C 
BRANCH  30  31
ATOM     31  O   UNL     1      -5.043   4.049   2.574  0.00  0.00    -0.284 OA
BRANCH  31  32
ATOM     32  P   UNL     1      -6.470   3.738   1.647  0.00  0.00    +0.472 P 
ATOM     33  O   UNL     1      -5.991   4.685   0.550  0.00  0.00    -0.228 OA
BRANCH  32  34
ATOM     34  O   UNL     1      -7.348   4.600   2.709  0.00  0.00    -0.303 OA
ATOM     35  H   UNL     1      -7.526   4.155   3.551  0.00  0.00    +0.222 HD
ENDBRANCH  32  34
BRANCH  32  36
ATOM     36  O   UNL     1      -7.897   3.426   0.720  0.00  0.00    -0.303 OA
ATOM     37  H   UNL     1      -8.319   2.590   0.968  0.00  0.00    +0.222 HD
ENDBRANCH  32  36
ENDBRANCH  31  32
ENDBRANCH  30  31
ENDBRANCH  27  30
ENDBRANCH  24  27
ENDBRANCH  21  24
ENDBRANCH  20  21
ENDBRANCH   7  20
TORSDOF 12
