REMARK  Name = 
REMARK  5 active torsions:
REMARK  status: ('A' for Active; 'I' for Inactive)
REMARK    1  A    between atoms: O_1  and  C_2
REMARK    2  A    between atoms: C_2  and  C_3
REMARK    3  A    between atoms: C_3  and  C_4
REMARK    4  A    between atoms: C_4  and  C_5
REMARK    5  A    between atoms: C_5  and  O_6
REMARK                            x       y       z     vdW  Elec       q    Type
REMARK                         _______ _______ _______ _____ _____    ______ ____
ROOT
ATOM      1  C   UNL     1       3.136  -0.594   1.087  0.00  0.00    +0.131 C 
ENDROOT
BRANCH   1   2
ATOM      2  C   UNL     1       2.351  -0.055  -0.079  0.00  0.00    +0.305 C 
ATOM      3  O   UNL     1       1.131  -0.028  -0.141  0.00  0.00    -0.251 OA
BRANCH   2   4
ATOM      4  O   UNL     1       3.137   0.407  -1.075  0.00  0.00    -0.481 OA
ATOM      5  H   UNL     1       4.096   0.329  -0.905  0.00  0.00    +0.295 HD
ENDBRANCH   2   4
ENDBRANCH   1   2
BRANCH   1   6
ATOM      6  C   UNL     1       2.201  -1.102   2.185  0.00  0.00    +0.131 C 
BRANCH   6   7
ATOM      7  C   UNL     1       2.986  -1.641   3.350  0.00  0.00    +0.305 C 
ATOM      8  O   UNL     1       4.205  -1.670   3.412  0.00  0.00    -0.251 OA
BRANCH   7   9
ATOM      9  O   UNL     1       2.199  -2.104   4.347  0.00  0.00    -0.481 OA
ATOM     10  H   UNL     1       1.240  -2.024   4.175  0.00  0.00    +0.295 HD
ENDBRANCH   7   9
ENDBRANCH   6   7
ENDBRANCH   1   6
TORSDOF 5
