REMARK  Name = 
REMARK  9 active torsions:
REMARK  status: ('A' for Active; 'I' for Inactive)
REMARK    1  A    between atoms: O_1  and  C_2
REMARK    2  A    between atoms: C_2  and  C_3
REMARK    3  A    between atoms: C_3  and  C_4
REMARK    4  A    between atoms: C_4  and  C_5
REMARK    5  A    between atoms: C_4  and  C_10
REMARK    6  A    between atoms: C_4  and  O_13
REMARK    7  A    between atoms: C_5  and  C_6
REMARK    8  A    between atoms: C_6  and  O_7
REMARK    9  A    between atoms: C_10  and  O_11
REMARK                            x       y       z     vdW  Elec       q    Type
REMARK                         _______ _______ _______ _____ _____    ______ ____
ROOT
ATOM      1  C   UNL     1       2.131   1.090  -2.300  0.00  0.00    +0.182 C 
ENDROOT
BRANCH   1   2
ATOM      2  C   UNL     1       1.150   2.173  -1.850  0.00  0.00    +0.338 C 
ATOM      3  O   UNL     1       0.372   2.031  -0.917  0.00  0.00    -0.248 OA
BRANCH   2   4
ATOM      4  O   UNL     1       1.286   3.318  -2.551  0.00  0.00    -0.479 OA
ATOM      5  H   UNL     1       2.058   3.208  -3.164  0.00  0.00    +0.295 HD
ENDBRANCH   2   4
ENDBRANCH   1   2
BRANCH   1   6
ATOM      6  O   UNL     1       2.933   1.689  -3.334  0.00  0.00    -0.376 OA
ATOM      7  H   UNL     1       3.185   1.000  -3.990  0.00  0.00    +0.211 HD
ENDBRANCH   1   6
BRANCH   1   8
ATOM      8  C   UNL     1       2.953   0.663  -1.079  0.00  0.00    +0.167 C 
BRANCH   8   9
ATOM      9  C   UNL     1       3.719   1.803  -0.461  0.00  0.00    +0.308 C 
ATOM     10  O   UNL     1       4.879   2.062  -0.742  0.00  0.00    -0.251 OA
BRANCH   9  11
ATOM     11  O   UNL     1       3.023   2.516   0.445  0.00  0.00    -0.481 OA
ATOM     12  H   UNL     1       2.084   2.270   0.587  0.00  0.00    +0.295 HD
ENDBRANCH   9  11
ENDBRANCH   8   9
ENDBRANCH   1   8
BRANCH   1  13
ATOM     13  C   UNL     1       1.277  -0.060  -2.861  0.00  0.00    +0.167 C 
BRANCH  13  14
ATOM     14  C   UNL     1       2.153  -1.185  -3.353  0.00  0.00    +0.308 C 
ATOM     15  O   UNL     1       3.085  -0.995  -4.122  0.00  0.00    -0.251 OA
BRANCH  14  16
ATOM     16  O   UNL     1       1.834  -2.401  -2.874  0.00  0.00    -0.481 OA
ATOM     17  H   UNL     1       1.055  -2.446  -2.289  0.00  0.00    +0.295 HD
ENDBRANCH  14  16
ENDBRANCH  13  14
ENDBRANCH   1  13
TORSDOF 9
