REMARK  Name = 
REMARK  1 active torsions:
REMARK  status: ('A' for Active; 'I' for Inactive)
REMARK    1  A    between atoms: C_1  and  C_2
REMARK                            x       y       z     vdW  Elec       q    Type
REMARK                         _______ _______ _______ _____ _____    ______ ____
ROOT
ATOM      1  C   UNL     1       0.945   0.061   0.044  0.00  0.00    +0.082 C 
ATOM      2  C   UNL     1       2.442   0.037   0.067  0.00  0.00    +0.220 C 
ATOM      3  O   UNL     1       3.089  -0.704   0.801  0.00  0.00    -0.301 OA
ENDROOT
TORSDOF 0
