REMARK  Name = 
REMARK  6 active torsions:
REMARK  status: ('A' for Active; 'I' for Inactive)
REMARK    1  A    between atoms: CA_1  and  CB_2
REMARK    2  A    between atoms: CA_1  and  C_3
REMARK    3  A    between atoms: CA_1  and  N_4
REMARK    4  A    between atoms: CB_2  and  CG_5
REMARK    5  A    between atoms: C_3  and  O_6
REMARK    6  A    between atoms: CG_5  and  CD_8
REMARK                            x       y       z     vdW  Elec       q    Type
REMARK                         _______ _______ _______ _____ _____    ______ ____
ROOT
ATOM      1  CA  GLN A   1       0.998  -0.077  -0.030  0.00  0.00    +0.161 C 
ENDROOT
BRANCH   1   2
ATOM      2  N   GLN A   1       0.640  -1.177   0.886  0.00  0.00    -0.318 NA
ATOM      3  H1  GLN A   1      -0.327  -1.478   0.848  0.00  0.00    +0.119 HD
ATOM      4  H2  GLN A   1       0.938  -0.987   1.842  0.00  0.00    +0.119 HD
ENDBRANCH   1   2
BRANCH   1   5
ATOM      5  C   GLN A   1       0.489   1.281   0.482  0.00  0.00    +0.322 C 
ATOM      6  OXT GLN A   1       1.062   2.342   0.278  0.00  0.00    -0.249 OA
BRANCH   5   7
ATOM      7  O   GLN A   1      -0.692   1.221   1.138  0.00  0.00    -0.480 OA
ATOM      8  H   GLN A   1      -1.022   0.306   1.192  0.00  0.00    +0.295 HD
ENDBRANCH   5   7
ENDBRANCH   1   5
BRANCH   1   9
ATOM      9  CB  GLN A   1       0.463  -0.365  -1.436  0.00  0.00    +0.039 C 
BRANCH   9  10
ATOM     10  CG  GLN A   1       0.928   0.666  -2.471  0.00  0.00    +0.097 C 
BRANCH  10  11
ATOM     11  CD  GLN A   1       0.405   0.356  -3.857  0.00  0.00    +0.211 C 
ATOM     12  NE2 GLN A   1       0.807   1.232  -4.821  0.00  0.00    -0.329 N 
ATOM     13  OE1 GLN A   1      -0.335  -0.584  -4.125  0.00  0.00    -0.276 OA
ATOM     14 HE21 GLN A   1       1.432   2.007  -4.642  0.00  0.00    +0.145 HD
ATOM     15 HE22 GLN A   1       0.482   1.075  -5.768  0.00  0.00    +0.145 HD
ENDBRANCH  10  11
ENDBRANCH   9  10
ENDBRANCH   1   9
TORSDOF 6
