REMARK  Name = 
REMARK  4 active torsions:
REMARK  status: ('A' for Active; 'I' for Inactive)
REMARK    1  A    between atoms: C_1  and  C_2
REMARK    2  A    between atoms: C_1  and  C_3
REMARK    3  A    between atoms: C_2  and  O_5
REMARK    4  A    between atoms: C_3  and  O_7
REMARK                            x       y       z     vdW  Elec       q    Type
REMARK                         _______ _______ _______ _____ _____    ______ ____
ROOT
ATOM      1  C   UNL     1       0.995  -0.166   0.043  0.00  0.00    +0.264 C 
ATOM      2  O   UNL     1       2.218  -0.248   0.129  0.00  0.00    -0.283 OA
ENDROOT
BRANCH   1   3
ATOM      3  C   UNL     1       0.279  -1.130  -0.891  0.00  0.00    +0.375 C 
ATOM      4  O   UNL     1      -0.929  -1.177  -0.991  0.00  0.00    -0.242 OA
BRANCH   3   5
ATOM      5  O   UNL     1       1.159  -1.905  -1.553  0.00  0.00    -0.475 OA
ATOM      6  H   UNL     1       2.077  -1.669  -1.284  0.00  0.00    +0.296 HD
ENDBRANCH   3   5
ENDBRANCH   1   3
BRANCH   1   7
ATOM      7  C   UNL     1       0.092   0.792   0.800  0.00  0.00    +0.242 C 
BRANCH   7   8
ATOM      8  O   UNL     1       0.773   1.729   1.620  0.00  0.00    -0.387 OA
ATOM      9  H   UNL     1       1.207   1.235   2.340  0.00  0.00    +0.210 HD
ENDBRANCH   7   8
ENDBRANCH   1   7
TORSDOF 4
