REMARK  Name = 
REMARK  5 active torsions:
REMARK  status: ('A' for Active; 'I' for Inactive)
REMARK    1  A    between atoms: C_1  and  N_2
REMARK    2  A    between atoms: C_1  and  C_3
REMARK    3  A    between atoms: C_3  and  C_5
REMARK    4  A    between atoms: C_5  and  C_8
REMARK    5  A    between atoms: C_8  and  N_9
REMARK                            x       y       z     vdW  Elec       q    Type
REMARK                         _______ _______ _______ _____ _____    ______ ____
ROOT
ATOM      1  N   UNL     1       0.431  -0.802  -1.134  0.00  0.00    -0.356 N 
ATOM      2  C   UNL     1      -0.883  -1.090  -1.235  0.00  0.00    +0.188 C 
ATOM      3  N   UNL     1      -1.137  -2.109  -2.074  0.00  0.00    -0.370 N 
ATOM      4  N   UNL     1      -1.864  -0.513  -0.639  0.00  0.00    -0.269 NA
ATOM      5  H   UNL     1       1.045  -1.540  -1.450  0.00  0.00    +0.162 HD
ATOM      6  H   UNL     1      -0.556  -2.147  -2.903  0.00  0.00    +0.159 HD
ATOM      7  H   UNL     1      -2.129  -2.117  -2.311  0.00  0.00    +0.159 HD
ATOM      8  H   UNL     1      -1.505   0.225  -0.034  0.00  0.00    +0.190 HD
ENDROOT
BRANCH   1   9
ATOM      9  C   UNL     1       0.981   0.049  -0.094  0.00  0.00    +0.115 C 
BRANCH   9  10
ATOM     10  C   UNL     1       2.509   0.028  -0.110  0.00  0.00    +0.022 C 
BRANCH  10  11
ATOM     11  C   UNL     1       3.066   0.992   0.940  0.00  0.00    +0.017 C 
BRANCH  11  12
ATOM     12  C   UNL     1       4.593   1.003   0.956  0.00  0.00    +0.078 C 
BRANCH  12  13
ATOM     13  N   UNL     1       5.069   1.935   1.971  0.00  0.00    -0.330 NA
ATOM     14  H   UNL     1       4.758   2.880   1.749  0.00  0.00    +0.118 HD
ATOM     15  H   UNL     1       6.088   1.962   1.959  0.00  0.00    +0.118 HD
ENDBRANCH  12  13
ENDBRANCH  11  12
ENDBRANCH  10  11
ENDBRANCH   9  10
ENDBRANCH   1   9
TORSDOF 5
