MODEL 1
REMARK VINA RESULT:    -7.804      0.000      0.000
REMARK INTER + INTRA:          -9.199
REMARK INTER:                  -8.945
REMARK INTRA:                  -0.255
REMARK UNBOUND:                -0.255
REMARK  Name = 
REMARK  4 active torsions:
REMARK  status: ('A' for Active; 'I' for Inactive)
REMARK    1  A    between atoms: C_1  and  C_2
REMARK    2  A    between atoms: C_6  and  O_20
REMARK    3  A    between atoms: C_14  and  O_17
REMARK    4  A    between atoms: C_18  and  O_19
REMARK                            x       y       z     vdW  Elec       q    Type
REMARK                         _______ _______ _______ _____ _____    ______ ____
ROOT
ATOM      1  C   UNL     1      -6.218   1.185 -12.625  0.00  0.00    +0.068 A 
ATOM      2  C   UNL     1      -7.430   1.869 -13.145  0.00  0.00    +0.200 A 
ATOM      3  C   UNL     1      -5.631   1.701 -11.535  0.00  0.00    +0.208 A 
ATOM      4  C   UNL     1      -7.871   3.068 -12.412  0.00  0.00    +0.065 A 
ATOM      5  O   UNL     1      -8.019   1.484 -14.147  0.00  0.00    -0.286 OA
ATOM      6  O   UNL     1      -6.036   2.816 -10.840  0.00  0.00    -0.462 OA
ATOM      7  C   UNL     1      -7.140   3.489 -11.301  0.00  0.00    +0.142 A 
ATOM      8  C   UNL     1      -8.992   3.788 -12.837  0.00  0.00    +0.019 A 
ATOM      9  C   UNL     1      -7.518   4.642 -10.611  0.00  0.00    +0.092 A 
ATOM     10  C   UNL     1      -9.371   4.939 -12.146  0.00  0.00    +0.046 A 
ATOM     11  C   UNL     1      -8.630   5.360 -11.045  0.00  0.00    +0.120 A 
ENDROOT
BRANCH   1  12
ATOM     12  C   UNL     1      -5.657   0.007 -13.298  0.00  0.00    +0.030 A 
ATOM     13  C   UNL     1      -5.561  -1.203 -12.592  0.00  0.00    +0.016 A 
ATOM     14  C   UNL     1      -5.201   0.049 -14.624  0.00  0.00    +0.128 A 
ATOM     15  C   UNL     1      -5.030  -2.345 -13.202  0.00  0.00    +0.046 A 
ATOM     16  C   UNL     1      -4.662  -1.084 -15.232  0.00  0.00    +0.091 A 
ATOM     17  C   UNL     1      -4.588  -2.273 -14.519  0.00  0.00    +0.120 A 
BRANCH  17  18
ATOM     18  O   UNL     1      -4.074  -3.364 -15.155  0.00  0.00    -0.507 OA
ATOM     19  H   UNL     1      -4.786  -4.010 -15.296  0.00  0.00    +0.292 HD
ENDBRANCH  17  18
BRANCH  14  20
ATOM     20  O   UNL     1      -5.252   1.180 -15.393  0.00  0.00    -0.506 OA
ATOM     21  H   UNL     1      -5.160   0.928 -16.326  0.00  0.00    +0.292 HD
ENDBRANCH  14  20
ENDBRANCH   1  12
BRANCH  11  22
ATOM     22  O   UNL     1      -9.031   6.499 -10.413  0.00  0.00    -0.507 OA
ATOM     23  H   UNL     1     -10.001   6.512 -10.363  0.00  0.00    +0.292 HD
ENDBRANCH  11  22
TORSDOF 4
ENDMDL
MODEL 2
REMARK VINA RESULT:    -7.585      3.455      7.251
REMARK INTER + INTRA:          -8.948
REMARK INTER:                  -8.699
REMARK INTRA:                  -0.249
REMARK UNBOUND:                -0.255
REMARK  Name = 
REMARK  4 active torsions:
REMARK  status: ('A' for Active; 'I' for Inactive)
REMARK    1  A    between atoms: C_1  and  C_2
REMARK    2  A    between atoms: C_6  and  O_20
REMARK    3  A    between atoms: C_14  and  O_17
REMARK    4  A    between atoms: C_18  and  O_19
REMARK                            x       y       z     vdW  Elec       q    Type
REMARK                         _______ _______ _______ _____ _____    ______ ____
ROOT
ATOM      1  C   UNL     1      -5.616  -0.543 -15.794  0.00  0.00    +0.068 A 
ATOM      2  C   UNL     1      -4.541  -0.610 -16.817  0.00  0.00    +0.200 A 
ATOM      3  C   UNL     1      -6.886  -0.576 -16.223  0.00  0.00    +0.208 A 
ATOM      4  C   UNL     1      -4.976  -0.699 -18.221  0.00  0.00    +0.065 A 
ATOM      5  O   UNL     1      -3.353  -0.563 -16.522  0.00  0.00    -0.286 OA
ATOM      6  O   UNL     1      -7.305  -0.664 -17.529  0.00  0.00    -0.462 OA
ATOM      7  C   UNL     1      -6.342  -0.708 -18.507  0.00  0.00    +0.142 A 
ATOM      8  C   UNL     1      -4.036  -0.750 -19.255  0.00  0.00    +0.019 A 
ATOM      9  C   UNL     1      -6.780  -0.755 -19.832  0.00  0.00    +0.092 A 
ATOM     10  C   UNL     1      -4.473  -0.800 -20.579  0.00  0.00    +0.046 A 
ATOM     11  C   UNL     1      -5.837  -0.796 -20.857  0.00  0.00    +0.120 A 
ENDROOT
BRANCH   1  12
ATOM     12  C   UNL     1      -5.305  -0.408 -14.366  0.00  0.00    +0.030 A 
ATOM     13  C   UNL     1      -5.776   0.714 -13.666  0.00  0.00    +0.016 A 
ATOM     14  C   UNL     1      -4.542  -1.360 -13.673  0.00  0.00    +0.128 A 
ATOM     15  C   UNL     1      -5.497   0.875 -12.304  0.00  0.00    +0.046 A 
ATOM     16  C   UNL     1      -4.254  -1.199 -12.320  0.00  0.00    +0.091 A 
ATOM     17  C   UNL     1      -4.740  -0.088 -11.643  0.00  0.00    +0.120 A 
BRANCH  17  18
ATOM     18  O   UNL     1      -4.453   0.024 -10.315  0.00  0.00    -0.507 OA
ATOM     19  H   UNL     1      -3.770   0.706 -10.198  0.00  0.00    +0.292 HD
ENDBRANCH  17  18
BRANCH  14  20
ATOM     20  O   UNL     1      -4.039  -2.486 -14.268  0.00  0.00    -0.506 OA
ATOM     21  H   UNL     1      -3.474  -2.220 -15.012  0.00  0.00    +0.292 HD
ENDBRANCH  14  20
ENDBRANCH   1  12
BRANCH  11  22
ATOM     22  O   UNL     1      -6.214  -0.830 -22.166  0.00  0.00    -0.507 OA
ATOM     23  H   UNL     1      -6.816  -0.089 -22.345  0.00  0.00    +0.292 HD
ENDBRANCH  11  22
TORSDOF 4
ENDMDL
MODEL 3
REMARK VINA RESULT:    -7.521      3.366      5.622
REMARK INTER + INTRA:          -8.875
REMARK INTER:                  -8.564
REMARK INTRA:                  -0.311
REMARK UNBOUND:                -0.255
REMARK  Name = 
REMARK  4 active torsions:
REMARK  status: ('A' for Active; 'I' for Inactive)
REMARK    1  A    between atoms: C_1  and  C_2
REMARK    2  A    between atoms: C_6  and  O_20
REMARK    3  A    between atoms: C_14  and  O_17
REMARK    4  A    between atoms: C_18  and  O_19
REMARK                            x       y       z     vdW  Elec       q    Type
REMARK                         _______ _______ _______ _____ _____    ______ ____
ROOT
ATOM      1  C   UNL     1      -5.488  -0.359 -16.221  0.00  0.00    +0.068 A 
ATOM      2  C   UNL     1      -4.617  -1.169 -15.331  0.00  0.00    +0.200 A 
ATOM      3  C   UNL     1      -6.141   0.679 -15.678  0.00  0.00    +0.208 A 
ATOM      4  C   UNL     1      -4.560  -0.757 -13.918  0.00  0.00    +0.065 A 
ATOM      5  O   UNL     1      -4.001  -2.147 -15.733  0.00  0.00    -0.286 OA
ATOM      6  O   UNL     1      -6.093   1.076 -14.363  0.00  0.00    -0.462 OA
ATOM      7  C   UNL     1      -5.315   0.341 -13.502  0.00  0.00    +0.142 A 
ATOM      8  C   UNL     1      -3.781  -1.469 -13.001  0.00  0.00    +0.019 A 
ATOM      9  C   UNL     1      -5.306   0.729 -12.161  0.00  0.00    +0.092 A 
ATOM     10  C   UNL     1      -3.770  -1.079 -11.662  0.00  0.00    +0.046 A 
ATOM     11  C   UNL     1      -4.534   0.010 -11.252  0.00  0.00    +0.120 A 
ENDROOT
BRANCH   1  12
ATOM     12  C   UNL     1      -5.660  -0.700 -17.639  0.00  0.00    +0.030 A 
ATOM     13  C   UNL     1      -6.917  -1.131 -18.092  0.00  0.00    +0.016 A 
ATOM     14  C   UNL     1      -4.605  -0.619 -18.560  0.00  0.00    +0.128 A 
ATOM     15  C   UNL     1      -7.114  -1.465 -19.436  0.00  0.00    +0.046 A 
ATOM     16  C   UNL     1      -4.795  -0.960 -19.898  0.00  0.00    +0.091 A 
ATOM     17  C   UNL     1      -6.050  -1.373 -20.328  0.00  0.00    +0.120 A 
BRANCH  17  18
ATOM     18  O   UNL     1      -6.201  -1.678 -21.648  0.00  0.00    -0.507 OA
ATOM     19  H   UNL     1      -5.908  -0.920 -22.180  0.00  0.00    +0.292 HD
ENDBRANCH  17  18
BRANCH  14  20
ATOM     20  O   UNL     1      -3.345  -0.210 -18.215  0.00  0.00    -0.506 OA
ATOM     21  H   UNL     1      -2.712  -0.577 -18.854  0.00  0.00    +0.292 HD
ENDBRANCH  14  20
ENDBRANCH   1  12
BRANCH  11  22
ATOM     22  O   UNL     1      -4.502   0.341  -9.930  0.00  0.00    -0.507 OA
ATOM     23  H   UNL     1      -3.582   0.504  -9.664  0.00  0.00    +0.292 HD
ENDBRANCH  11  22
TORSDOF 4
ENDMDL
MODEL 4
REMARK VINA RESULT:    -6.977      0.841      1.916
REMARK INTER + INTRA:          -8.251
REMARK INTER:                  -8.015
REMARK INTRA:                  -0.236
REMARK UNBOUND:                -0.255
REMARK  Name = 
REMARK  4 active torsions:
REMARK  status: ('A' for Active; 'I' for Inactive)
REMARK    1  A    between atoms: C_1  and  C_2
REMARK    2  A    between atoms: C_6  and  O_20
REMARK    3  A    between atoms: C_14  and  O_17
REMARK    4  A    between atoms: C_18  and  O_19
REMARK                            x       y       z     vdW  Elec       q    Type
REMARK                         _______ _______ _______ _____ _____    ______ ____
ROOT
ATOM      1  C   UNL     1      -6.926   1.122 -13.587  0.00  0.00    +0.068 A 
ATOM      2  C   UNL     1      -6.556   1.894 -12.373  0.00  0.00    +0.200 A 
ATOM      3  C   UNL     1      -7.997   1.530 -14.283  0.00  0.00    +0.208 A 
ATOM      4  C   UNL     1      -7.417   3.042 -12.039  0.00  0.00    +0.065 A 
ATOM      5  O   UNL     1      -5.608   1.583 -11.664  0.00  0.00    -0.286 OA
ATOM      6  O   UNL     1      -8.805   2.601 -13.983  0.00  0.00    -0.462 OA
ATOM      7  C   UNL     1      -8.509   3.329 -12.858  0.00  0.00    +0.142 A 
ATOM      8  C   UNL     1      -7.157   3.818 -10.905  0.00  0.00    +0.019 A 
ATOM      9  C   UNL     1      -9.361   4.389 -12.542  0.00  0.00    +0.092 A 
ATOM     10  C   UNL     1      -8.006   4.879 -10.591  0.00  0.00    +0.046 A 
ATOM     11  C   UNL     1      -9.101   5.153 -11.406  0.00  0.00    +0.120 A 
ENDROOT
BRANCH   1  12
ATOM     12  C   UNL     1      -6.169  -0.068 -13.996  0.00  0.00    +0.030 A 
ATOM     13  C   UNL     1      -6.322  -1.260 -13.269  0.00  0.00    +0.016 A 
ATOM     14  C   UNL     1      -5.287  -0.055 -15.087  0.00  0.00    +0.128 A 
ATOM     15  C   UNL     1      -5.615  -2.412 -13.631  0.00  0.00    +0.046 A 
ATOM     16  C   UNL     1      -4.574  -1.198 -15.444  0.00  0.00    +0.091 A 
ATOM     17  C   UNL     1      -4.749  -2.369 -14.719  0.00  0.00    +0.120 A 
BRANCH  17  18
ATOM     18  O   UNL     1      -4.049  -3.471 -15.113  0.00  0.00    -0.507 OA
ATOM     19  H   UNL     1      -3.402  -3.694 -14.422  0.00  0.00    +0.292 HD
ENDBRANCH  17  18
BRANCH  14  20
ATOM     20  O   UNL     1      -5.070   1.057 -15.855  0.00  0.00    -0.506 OA
ATOM     21  H   UNL     1      -5.160   0.812 -16.791  0.00  0.00    +0.292 HD
ENDBRANCH  14  20
ENDBRANCH   1  12
BRANCH  11  22
ATOM     22  O   UNL     1      -9.910   6.190 -11.048  0.00  0.00    -0.507 OA
ATOM     23  H   UNL     1     -10.413   5.944 -10.255  0.00  0.00    +0.292 HD
ENDBRANCH  11  22
TORSDOF 4
ENDMDL
MODEL 5
REMARK VINA RESULT:    -6.843      2.993      6.400
REMARK INTER + INTRA:          -8.097
REMARK INTER:                  -7.722
REMARK INTRA:                  -0.375
REMARK UNBOUND:                -0.255
REMARK  Name = 
REMARK  4 active torsions:
REMARK  status: ('A' for Active; 'I' for Inactive)
REMARK    1  A    between atoms: C_1  and  C_2
REMARK    2  A    between atoms: C_6  and  O_20
REMARK    3  A    between atoms: C_14  and  O_17
REMARK    4  A    between atoms: C_18  and  O_19
REMARK                            x       y       z     vdW  Elec       q    Type
REMARK                         _______ _______ _______ _____ _____    ______ ____
ROOT
ATOM      1  C   UNL     1      -6.144  -0.677 -14.170  0.00  0.00    +0.068 A 
ATOM      2  C   UNL     1      -5.768  -0.188 -15.522  0.00  0.00    +0.200 A 
ATOM      3  C   UNL     1      -7.125  -1.587 -14.088  0.00  0.00    +0.208 A 
ATOM      4  C   UNL     1      -6.523  -0.748 -16.655  0.00  0.00    +0.065 A 
ATOM      5  O   UNL     1      -4.900   0.659 -15.693  0.00  0.00    -0.286 OA
ATOM      6  O   UNL     1      -7.834  -2.121 -15.138  0.00  0.00    -0.462 OA
ATOM      7  C   UNL     1      -7.531  -1.680 -16.402  0.00  0.00    +0.142 A 
ATOM      8  C   UNL     1      -6.252  -0.336 -17.963  0.00  0.00    +0.019 A 
ATOM      9  C   UNL     1      -8.285  -2.198 -17.457  0.00  0.00    +0.092 A 
ATOM     10  C   UNL     1      -7.004  -0.856 -19.017  0.00  0.00    +0.046 A 
ATOM     11  C   UNL     1      -8.015  -1.776 -18.756  0.00  0.00    +0.120 A 
ENDROOT
BRANCH   1  12
ATOM     12  C   UNL     1      -5.492  -0.159 -12.961  0.00  0.00    +0.030 A 
ATOM     13  C   UNL     1      -4.438  -0.888 -12.386  0.00  0.00    +0.016 A 
ATOM     14  C   UNL     1      -5.894   1.038 -12.349  0.00  0.00    +0.128 A 
ATOM     15  C   UNL     1      -3.797  -0.424 -11.233  0.00  0.00    +0.046 A 
ATOM     16  C   UNL     1      -5.263   1.498 -11.195  0.00  0.00    +0.091 A 
ATOM     17  C   UNL     1      -4.215   0.769 -10.650  0.00  0.00    +0.120 A 
BRANCH  17  18
ATOM     18  O   UNL     1      -3.611   1.262  -9.532  0.00  0.00    -0.507 OA
ATOM     19  H   UNL     1      -3.400   2.200  -9.677  0.00  0.00    +0.292 HD
ENDBRANCH  17  18
BRANCH  14  20
ATOM     20  O   UNL     1      -6.910   1.816 -12.833  0.00  0.00    -0.506 OA
ATOM     21  H   UNL     1      -6.709   2.055 -13.753  0.00  0.00    +0.292 HD
ENDBRANCH  14  20
ENDBRANCH   1  12
BRANCH  11  22
ATOM     22  O   UNL     1      -8.732  -2.243 -19.818  0.00  0.00    -0.507 OA
ATOM     23  H   UNL     1      -9.419  -2.850 -19.497  0.00  0.00    +0.292 HD
ENDBRANCH  11  22
TORSDOF 4
ENDMDL
MODEL 6
REMARK VINA RESULT:    -6.790     13.375     15.764
REMARK INTER + INTRA:          -8.036
REMARK INTER:                  -7.727
REMARK INTRA:                  -0.309
REMARK UNBOUND:                -0.255
REMARK  Name = 
REMARK  4 active torsions:
REMARK  status: ('A' for Active; 'I' for Inactive)
REMARK    1  A    between atoms: C_1  and  C_2
REMARK    2  A    between atoms: C_6  and  O_20
REMARK    3  A    between atoms: C_14  and  O_17
REMARK    4  A    between atoms: C_18  and  O_19
REMARK                            x       y       z     vdW  Elec       q    Type
REMARK                         _______ _______ _______ _____ _____    ______ ____
ROOT
ATOM      1  C   UNL     1     -10.347 -10.219  -6.081  0.00  0.00    +0.068 A 
ATOM      2  C   UNL     1     -10.257 -11.415  -6.959  0.00  0.00    +0.200 A 
ATOM      3  C   UNL     1      -9.277  -9.415  -6.012  0.00  0.00    +0.208 A 
ATOM      4  C   UNL     1      -8.983 -11.610  -7.671  0.00  0.00    +0.065 A 
ATOM      5  O   UNL     1     -11.175 -12.217  -7.067  0.00  0.00    -0.286 OA
ATOM      6  O   UNL     1      -8.084  -9.584  -6.675  0.00  0.00    -0.462 OA
ATOM      7  C   UNL     1      -7.953 -10.688  -7.481  0.00  0.00    +0.142 A 
ATOM      8  C   UNL     1      -8.798 -12.716  -8.506  0.00  0.00    +0.019 A 
ATOM      9  C   UNL     1      -6.723 -10.871  -8.116  0.00  0.00    +0.092 A 
ATOM     10  C   UNL     1      -7.571 -12.898  -9.143  0.00  0.00    +0.046 A 
ATOM     11  C   UNL     1      -6.544 -11.980  -8.940  0.00  0.00    +0.120 A 
ENDROOT
BRANCH   1  12
ATOM     12  C   UNL     1     -11.551  -9.943  -5.287  0.00  0.00    +0.030 A 
ATOM     13  C   UNL     1     -12.649  -9.321  -5.902  0.00  0.00    +0.016 A 
ATOM     14  C   UNL     1     -11.640 -10.269  -3.925  0.00  0.00    +0.128 A 
ATOM     15  C   UNL     1     -13.811  -9.042  -5.174  0.00  0.00    +0.046 A 
ATOM     16  C   UNL     1     -12.791  -9.984  -3.194  0.00  0.00    +0.091 A 
ATOM     17  C   UNL     1     -13.871  -9.380  -3.826  0.00  0.00    +0.120 A 
BRANCH  17  18
ATOM     18  O   UNL     1     -14.987  -9.135  -3.082  0.00  0.00    -0.507 OA
ATOM     19  H   UNL     1     -15.081  -8.175  -2.965  0.00  0.00    +0.292 HD
ENDBRANCH  17  18
BRANCH  14  20
ATOM     20  O   UNL     1     -10.623 -10.876  -3.238  0.00  0.00    -0.506 OA
ATOM     21  H   UNL     1     -10.513 -10.427  -2.384  0.00  0.00    +0.292 HD
ENDBRANCH  14  20
ENDBRANCH   1  12
BRANCH  11  22
ATOM     22  O   UNL     1      -5.358 -12.210  -9.572  0.00  0.00    -0.507 OA
ATOM     23  H   UNL     1      -4.657 -12.315  -8.909  0.00  0.00    +0.292 HD
ENDBRANCH  11  22
TORSDOF 4
ENDMDL
MODEL 7
REMARK VINA RESULT:    -6.738     19.024     20.558
REMARK INTER + INTRA:          -7.978
REMARK INTER:                  -7.683
REMARK INTRA:                  -0.295
REMARK UNBOUND:                -0.255
REMARK  Name = 
REMARK  4 active torsions:
REMARK  status: ('A' for Active; 'I' for Inactive)
REMARK    1  A    between atoms: C_1  and  C_2
REMARK    2  A    between atoms: C_6  and  O_20
REMARK    3  A    between atoms: C_14  and  O_17
REMARK    4  A    between atoms: C_18  and  O_19
REMARK                            x       y       z     vdW  Elec       q    Type
REMARK                         _______ _______ _______ _____ _____    ______ ____
ROOT
ATOM      1  C   UNL     1       5.671  -8.788  -0.760  0.00  0.00    +0.068 A 
ATOM      2  C   UNL     1       7.086  -8.409  -1.007  0.00  0.00    +0.200 A 
ATOM      3  C   UNL     1       4.766  -7.802  -0.678  0.00  0.00    +0.208 A 
ATOM      4  C   UNL     1       7.366  -6.968  -1.130  0.00  0.00    +0.065 A 
ATOM      5  O   UNL     1       7.983  -9.239  -1.074  0.00  0.00    -0.286 OA
ATOM      6  O   UNL     1       5.015  -6.455  -0.796  0.00  0.00    -0.462 OA
ATOM      7  C   UNL     1       6.313  -6.061  -1.004  0.00  0.00    +0.142 A 
ATOM      8  C   UNL     1       8.671  -6.514  -1.346  0.00  0.00    +0.019 A 
ATOM      9  C   UNL     1       6.559  -4.689  -1.081  0.00  0.00    +0.092 A 
ATOM     10  C   UNL     1       8.916  -5.143  -1.426  0.00  0.00    +0.046 A 
ATOM     11  C   UNL     1       7.863  -4.243  -1.288  0.00  0.00    +0.120 A 
ENDROOT
BRANCH   1  12
ATOM     12  C   UNL     1       5.276 -10.191  -0.576  0.00  0.00    +0.030 A 
ATOM     13  C   UNL     1       4.746 -10.596   0.659  0.00  0.00    +0.016 A 
ATOM     14  C   UNL     1       5.421 -11.148  -1.592  0.00  0.00    +0.128 A 
ATOM     15  C   UNL     1       4.361 -11.925   0.869  0.00  0.00    +0.046 A 
ATOM     16  C   UNL     1       5.048 -12.474  -1.383  0.00  0.00    +0.091 A 
ATOM     17  C   UNL     1       4.514 -12.851  -0.158  0.00  0.00    +0.120 A 
BRANCH  17  18
ATOM     18  O   UNL     1       4.143 -14.154  -0.000  0.00  0.00    -0.507 OA
ATOM     19  H   UNL     1       3.173 -14.200   0.037  0.00  0.00    +0.292 HD
ENDBRANCH  17  18
BRANCH  14  20
ATOM     20  O   UNL     1       5.927 -10.850  -2.828  0.00  0.00    -0.506 OA
ATOM     21  H   UNL     1       6.801 -11.265  -2.915  0.00  0.00    +0.292 HD
ENDBRANCH  14  20
ENDBRANCH   1  12
BRANCH  11  22
ATOM     22  O   UNL     1       8.156  -2.914  -1.357  0.00  0.00    -0.507 OA
ATOM     23  H   UNL     1       8.858  -2.708  -0.719  0.00  0.00    +0.292 HD
ENDBRANCH  11  22
TORSDOF 4
ENDMDL
MODEL 8
REMARK VINA RESULT:    -6.674     18.873     20.375
REMARK INTER + INTRA:          -7.904
REMARK INTER:                  -7.637
REMARK INTRA:                  -0.266
REMARK UNBOUND:                -0.255
REMARK  Name = 
REMARK  4 active torsions:
REMARK  status: ('A' for Active; 'I' for Inactive)
REMARK    1  A    between atoms: C_1  and  C_2
REMARK    2  A    between atoms: C_6  and  O_20
REMARK    3  A    between atoms: C_14  and  O_17
REMARK    4  A    between atoms: C_18  and  O_19
REMARK                            x       y       z     vdW  Elec       q    Type
REMARK                         _______ _______ _______ _____ _____    ______ ____
ROOT
ATOM      1  C   UNL     1       7.253  -7.782  -0.870  0.00  0.00    +0.068 A 
ATOM      2  C   UNL     1       6.456  -6.542  -1.056  0.00  0.00    +0.200 A 
ATOM      3  C   UNL     1       8.503  -7.654  -0.402  0.00  0.00    +0.208 A 
ATOM      4  C   UNL     1       7.124  -5.275  -0.713  0.00  0.00    +0.065 A 
ATOM      5  O   UNL     1       5.315  -6.559  -1.500  0.00  0.00    -0.286 OA
ATOM      6  O   UNL     1       9.136  -6.479  -0.074  0.00  0.00    -0.462 OA
ATOM      7  C   UNL     1       8.440  -5.308  -0.250  0.00  0.00    +0.142 A 
ATOM      8  C   UNL     1       6.459  -4.056  -0.871  0.00  0.00    +0.019 A 
ATOM      9  C   UNL     1       9.107  -4.119   0.047  0.00  0.00    +0.092 A 
ATOM     10  C   UNL     1       7.125  -2.867  -0.571  0.00  0.00    +0.046 A 
ATOM     11  C   UNL     1       8.442  -2.907  -0.121  0.00  0.00    +0.120 A 
ENDROOT
BRANCH   1  12
ATOM     12  C   UNL     1       6.710  -9.100  -1.220  0.00  0.00    +0.030 A 
ATOM     13  C   UNL     1       7.347  -9.862  -2.213  0.00  0.00    +0.016 A 
ATOM     14  C   UNL     1       5.565  -9.625  -0.602  0.00  0.00    +0.128 A 
ATOM     15  C   UNL     1       6.854 -11.121  -2.571  0.00  0.00    +0.046 A 
ATOM     16  C   UNL     1       5.066 -10.875  -0.963  0.00  0.00    +0.091 A 
ATOM     17  C   UNL     1       5.718 -11.617  -1.939  0.00  0.00    +0.120 A 
BRANCH  17  18
ATOM     18  O   UNL     1       5.210 -12.843  -2.250  0.00  0.00    -0.507 OA
ATOM     19  H   UNL     1       5.795 -13.269  -2.899  0.00  0.00    +0.292 HD
ENDBRANCH  17  18
BRANCH  14  20
ATOM     20  O   UNL     1       4.875  -8.959   0.375  0.00  0.00    -0.506 OA
ATOM     21  H   UNL     1       5.326  -9.096   1.224  0.00  0.00    +0.292 HD
ENDBRANCH  14  20
ENDBRANCH   1  12
BRANCH  11  22
ATOM     22  O   UNL     1       9.054  -1.718   0.144  0.00  0.00    -0.507 OA
ATOM     23  H   UNL     1       9.724  -1.850   0.834  0.00  0.00    +0.292 HD
ENDBRANCH  11  22
TORSDOF 4
ENDMDL
MODEL 9
REMARK VINA RESULT:    -6.432      3.028      6.085
REMARK INTER + INTRA:          -7.626
REMARK INTER:                  -7.310
REMARK INTRA:                  -0.316
REMARK UNBOUND:                -0.255
REMARK  Name = 
REMARK  4 active torsions:
REMARK  status: ('A' for Active; 'I' for Inactive)
REMARK    1  A    between atoms: C_1  and  C_2
REMARK    2  A    between atoms: C_6  and  O_20
REMARK    3  A    between atoms: C_14  and  O_17
REMARK    4  A    between atoms: C_18  and  O_19
REMARK                            x       y       z     vdW  Elec       q    Type
REMARK                         _______ _______ _______ _____ _____    ______ ____
ROOT
ATOM      1  C   UNL     1      -7.454   0.851 -14.993  0.00  0.00    +0.068 A 
ATOM      2  C   UNL     1      -7.069   1.305 -13.632  0.00  0.00    +0.200 A 
ATOM      3  C   UNL     1      -6.774  -0.177 -15.522  0.00  0.00    +0.208 A 
ATOM      4  C   UNL     1      -5.959   0.582 -12.989  0.00  0.00    +0.065 A 
ATOM      5  O   UNL     1      -7.618   2.249 -13.078  0.00  0.00    -0.286 OA
ATOM      6  O   UNL     1      -5.739  -0.862 -14.931  0.00  0.00    -0.462 OA
ATOM      7  C   UNL     1      -5.340  -0.460 -13.681  0.00  0.00    +0.142 A 
ATOM      8  C   UNL     1      -5.515   0.949 -11.715  0.00  0.00    +0.019 A 
ATOM      9  C   UNL     1      -4.261  -1.137 -13.108  0.00  0.00    +0.092 A 
ATOM     10  C   UNL     1      -4.439   0.271 -11.142  0.00  0.00    +0.046 A 
ATOM     11  C   UNL     1      -3.819  -0.760 -11.842  0.00  0.00    +0.120 A 
ENDROOT
BRANCH   1  12
ATOM     12  C   UNL     1      -8.517   1.522 -15.752  0.00  0.00    +0.030 A 
ATOM     13  C   UNL     1      -9.713   0.833 -16.011  0.00  0.00    +0.016 A 
ATOM     14  C   UNL     1      -8.376   2.831 -16.238  0.00  0.00    +0.128 A 
ATOM     15  C   UNL     1     -10.745   1.443 -16.732  0.00  0.00    +0.046 A 
ATOM     16  C   UNL     1      -9.399   3.438 -16.965  0.00  0.00    +0.091 A 
ATOM     17  C   UNL     1     -10.578   2.743 -17.200  0.00  0.00    +0.120 A 
BRANCH  17  18
ATOM     18  O   UNL     1     -11.562   3.378 -17.897  0.00  0.00    -0.507 OA
ATOM     19  H   UNL     1     -12.405   2.923 -17.735  0.00  0.00    +0.292 HD
ENDBRANCH  17  18
BRANCH  14  20
ATOM     20  O   UNL     1      -7.250   3.582 -16.037  0.00  0.00    -0.506 OA
ATOM     21  H   UNL     1      -7.025   3.560 -15.093  0.00  0.00    +0.292 HD
ENDBRANCH  14  20
ENDBRANCH   1  12
BRANCH  11  22
ATOM     22  O   UNL     1      -2.762  -1.380 -11.245  0.00  0.00    -0.507 OA
ATOM     23  H   UNL     1      -2.602  -0.976 -10.377  0.00  0.00    +0.292 HD
ENDBRANCH  11  22
TORSDOF 4
ENDMDL
