REMARK  Name = 
REMARK  4 active torsions:
REMARK  status: ('A' for Active; 'I' for Inactive)
REMARK    1  A    between atoms: C_1  and  C_2
REMARK    2  A    between atoms: C_6  and  O_20
REMARK    3  A    between atoms: C_14  and  O_17
REMARK    4  A    between atoms: C_18  and  O_19
REMARK                            x       y       z     vdW  Elec       q    Type
REMARK                         _______ _______ _______ _____ _____    ______ ____
ROOT
ATOM      1  C   UNL     1      -2.701  -0.499  -0.001  0.00  0.00    +0.068 A 
ATOM      2  C   UNL     1      -1.848   0.717   0.028  0.00  0.00    +0.200 A 
ATOM      3  C   UNL     1      -2.087  -1.691   0.003  0.00  0.00    +0.208 A 
ATOM      4  C   UNL     1      -0.392   0.496   0.049  0.00  0.00    +0.065 A 
ATOM      5  O   UNL     1      -2.319   1.847   0.004  0.00  0.00    -0.286 OA
ATOM      6  O   UNL     1      -0.730  -1.910   0.027  0.00  0.00    -0.462 OA
ATOM      7  C   UNL     1       0.094  -0.812   0.034  0.00  0.00    +0.142 A 
ATOM      8  C   UNL     1       0.491   1.580   0.060  0.00  0.00    +0.019 A 
ATOM      9  C   UNL     1       1.470  -1.047   0.017  0.00  0.00    +0.092 A 
ATOM     10  C   UNL     1       1.866   1.345   0.046  0.00  0.00    +0.046 A 
ATOM     11  C   UNL     1       2.344   0.038   0.019  0.00  0.00    +0.120 A 
ENDROOT
BRANCH   1  12
ATOM     12  C   UNL     1      -4.165  -0.405  -0.068  0.00  0.00    +0.030 A 
ATOM     13  C   UNL     1      -4.905  -0.388   1.125  0.00  0.00    +0.016 A 
ATOM     14  C   UNL     1      -4.855  -0.342  -1.288  0.00  0.00    +0.128 A 
ATOM     15  C   UNL     1      -6.301  -0.301   1.097  0.00  0.00    +0.046 A 
ATOM     16  C   UNL     1      -6.246  -0.265  -1.320  0.00  0.00    +0.091 A 
ATOM     17  C   UNL     1      -6.958  -0.237  -0.128  0.00  0.00    +0.120 A 
BRANCH  17  18
ATOM     18  O   UNL     1      -8.316  -0.141  -0.201  0.00  0.00    -0.507 OA
ATOM     19  H   UNL     1      -8.673  -0.060   0.699  0.00  0.00    +0.292 HD
ENDBRANCH  17  18
BRANCH  14  20
ATOM     20  O   UNL     1      -4.223  -0.353  -2.502  0.00  0.00    -0.506 OA
ATOM     21  H   UNL     1      -3.300  -0.079  -2.376  0.00  0.00    +0.292 HD
ENDBRANCH  14  20
ENDBRANCH   1  12
BRANCH  11  22
ATOM     22  O   UNL     1       3.695  -0.139  -0.010  0.00  0.00    -0.507 OA
ATOM     23  H   UNL     1       3.892  -1.088  -0.067  0.00  0.00    +0.292 HD
ENDBRANCH  11  22
TORSDOF 4
