REMARK  Name = 
REMARK  11 active torsions:
REMARK  status: ('A' for Active; 'I' for Inactive)
REMARK    1  A    between atoms: N_1  and  C_3
REMARK    2  A    between atoms: C_8  and  O_14
REMARK    3  A    between atoms: C_12  and  C_18
REMARK    4  A    between atoms: C_13  and  O_19
REMARK    5  A    between atoms: C_18  and  O_20
REMARK    6  A    between atoms: O_20  and  P_21
REMARK    7  A    between atoms: P_21  and  O_22
REMARK    8  A    between atoms: P_21  and  O_23
REMARK    9  A    between atoms: O_22  and  P_25
REMARK   10  A    between atoms: P_25  and  O_26
REMARK   11  A    between atoms: P_25  and  O_27
REMARK                            x       y       z     vdW  Elec       q    Type
REMARK                         _______ _______ _______ _____ _____    ______ ____
ROOT
ATOM      1  C   UNL     1       2.002  -2.457  -0.075  0.00  0.00    +0.253 C 
ATOM      2  O   UNL     1       2.876  -2.730   1.060  0.00  0.00    -0.346 OA
ATOM      3  C   UNL     1       2.801  -2.796  -1.340  0.00  0.00    +0.195 C 
ATOM      4  C   UNL     1       4.043  -3.438   0.580  0.00  0.00    +0.178 C 
ATOM      5  C   UNL     1       3.723  -3.893  -0.835  0.00  0.00    +0.178 C 
ENDROOT
BRANCH   1   6
ATOM      6  N   UNL     1       1.536  -1.087   0.001  0.00  0.00    -0.285 N 
ATOM      7  C   UNL     1       0.237  -0.668   0.059  0.00  0.00    +0.171 A 
ATOM      8  C   UNL     1       2.318   0.042   0.007  0.00  0.00    +0.203 A 
ATOM      9  C   UNL     1       0.303   0.706   0.064  0.00  0.00    +0.172 A 
ATOM     10  N   UNL     1      -0.876  -1.450   0.094  0.00  0.00    -0.196 NA
ATOM     11  N   UNL     1       1.600   1.145   0.039  0.00  0.00    -0.229 NA
ATOM     12  C   UNL     1      -0.939   1.450   0.117  0.00  0.00    +0.280 A 
ATOM     13  C   UNL     1      -1.989  -0.765   0.140  0.00  0.00    +0.195 A 
ATOM     14  N   UNL     1      -2.045   0.614   0.159  0.00  0.00    -0.293 N 
ATOM     15  O   UNL     1      -1.046   2.672   0.124  0.00  0.00    -0.265 OA
ATOM     16  N   UNL     1      -3.184  -1.407   0.180  0.00  0.00    -0.329 N 
ATOM     17  H   UNL     1      -2.930   1.085   0.150  0.00  0.00    +0.172 HD
ATOM     18  H   UNL     1      -3.102  -2.397   0.387  0.00  0.00    +0.145 HD
ATOM     19  H   UNL     1      -3.943  -0.957   0.674  0.00  0.00    +0.145 HD
ENDBRANCH   1   6
BRANCH   3  20
ATOM     20  O   UNL     1       2.004  -3.254  -2.425  0.00  0.00    -0.385 OA
ATOM     21  H   UNL     1       1.923  -4.225  -2.330  0.00  0.00    +0.210 HD
ENDBRANCH   3  20
BRANCH   5  22
ATOM     22  O   UNL     1       3.001  -5.138  -0.825  0.00  0.00    -0.386 OA
ATOM     23  H   UNL     1       2.474  -5.216  -0.008  0.00  0.00    +0.210 HD
ENDBRANCH   5  22
BRANCH   4  24
ATOM     24  C   UNL     1       5.273  -2.517   0.661  0.00  0.00    +0.206 C 
BRANCH  24  25
ATOM     25  O   UNL     1       5.472  -2.033   1.992  0.00  0.00    -0.284 OA
BRANCH  25  26
ATOM     26  P   UNL     1       5.714  -3.316   3.127  0.00  0.00    +0.483 P 
ATOM     27  O   UNL     1       5.930  -4.465   4.142  0.00  0.00    -0.227 OA
BRANCH  26  28
ATOM     28  O   UNL     1       4.324  -2.782   3.819  0.00  0.00    -0.302 OA
ATOM     29  H   UNL     1       3.533  -2.918   3.278  0.00  0.00    +0.222 HD
ENDBRANCH  26  28
BRANCH  26  30
ATOM     30  O   UNL     1       6.688  -2.265   3.902  0.00  0.00    -0.186 OA
BRANCH  30  31
ATOM     31  P   UNL     1       8.210  -2.010   3.546  0.00  0.00    +0.481 P 
ATOM     32  O   UNL     1       9.042  -3.194   3.209  0.00  0.00    -0.227 OA
BRANCH  31  33
ATOM     33  O   UNL     1       8.085  -0.880   2.424  0.00  0.00    -0.302 OA
ATOM     34  H   UNL     1       7.502  -0.161   2.724  0.00  0.00    +0.222 HD
ENDBRANCH  31  33
BRANCH  31  35
ATOM     35  O   UNL     1       8.672  -1.127   4.796  0.00  0.00    -0.302 OA
ATOM     36  H   UNL     1       7.999  -1.145   5.501  0.00  0.00    +0.222 HD
ENDBRANCH  31  35
ENDBRANCH  30  31
ENDBRANCH  26  30
ENDBRANCH  25  26
ENDBRANCH  24  25
ENDBRANCH   4  24
TORSDOF 11
