REMARK  Name = 
REMARK  11 active torsions:
REMARK  status: ('A' for Active; 'I' for Inactive)
REMARK    1  A    between atoms: N_1  and  C_3
REMARK    2  A    between atoms: C_8  and  O_14
REMARK    3  A    between atoms: C_12  and  C_17
REMARK    4  A    between atoms: C_13  and  O_18
REMARK    5  A    between atoms: C_17  and  O_19
REMARK    6  A    between atoms: O_19  and  P_20
REMARK    7  A    between atoms: P_20  and  O_21
REMARK    8  A    between atoms: P_20  and  O_22
REMARK    9  A    between atoms: O_21  and  P_24
REMARK   10  A    between atoms: P_24  and  O_25
REMARK   11  A    between atoms: P_24  and  O_26
REMARK                            x       y       z     vdW  Elec       q    Type
REMARK                         _______ _______ _______ _____ _____    ______ ____
ROOT
ATOM      1  C   UNL     1       2.016  -2.486  -0.069  0.00  0.00    +0.253 C 
ATOM      2  O   UNL     1       2.808  -2.730   1.117  0.00  0.00    -0.346 OA
ATOM      3  C   UNL     1       2.902  -2.824  -1.269  0.00  0.00    +0.195 C 
ATOM      4  C   UNL     1       3.970  -3.513   0.758  0.00  0.00    +0.178 C 
ATOM      5  C   UNL     1       3.765  -3.941  -0.701  0.00  0.00    +0.178 C 
ENDROOT
BRANCH   1   6
ATOM      6  N   UNL     1       1.554  -1.112  -0.038  0.00  0.00    -0.285 N 
ATOM      7  C   UNL     1       0.255  -0.701  -0.047  0.00  0.00    +0.169 A 
ATOM      8  C   UNL     1       2.335   0.013  -0.002  0.00  0.00    +0.203 A 
ATOM      9  C   UNL     1       0.318   0.680  -0.021  0.00  0.00    +0.172 A 
ATOM     10  N   UNL     1      -0.851  -1.486  -0.076  0.00  0.00    -0.218 NA
ATOM     11  N   UNL     1       1.618   1.118  -0.003  0.00  0.00    -0.229 NA
ATOM     12  C   UNL     1      -0.930   1.414  -0.032  0.00  0.00    +0.279 A 
ATOM     13  C   UNL     1      -1.948  -0.796  -0.081  0.00  0.00    +0.201 A 
ATOM     14  N   UNL     1      -2.033   0.587  -0.051  0.00  0.00    -0.312 N 
ATOM     15  O   UNL     1      -1.033   2.638  -0.025  0.00  0.00    -0.265 OA
ATOM     16  H   UNL     1      -2.925   1.050  -0.058  0.00  0.00    +0.170 HD
ENDBRANCH   1   6
BRANCH   3  17
ATOM     17  O   UNL     1       2.181  -3.243  -2.420  0.00  0.00    -0.385 OA
ATOM     18  H   UNL     1       2.033  -4.207  -2.329  0.00  0.00    +0.210 HD
ENDBRANCH   3  17
BRANCH   5  19
ATOM     19  O   UNL     1       3.042  -5.177  -0.817  0.00  0.00    -0.386 OA
ATOM     20  H   UNL     1       2.469  -5.298  -0.039  0.00  0.00    +0.210 HD
ENDBRANCH   5  19
BRANCH   4  21
ATOM     21  C   UNL     1       5.225  -2.647   0.948  0.00  0.00    +0.206 C 
BRANCH  21  22
ATOM     22  O   UNL     1       5.374  -2.264   2.320  0.00  0.00    -0.284 OA
BRANCH  22  23
ATOM     23  P   UNL     1       6.746  -1.266   2.662  0.00  0.00    +0.483 P 
ATOM     24  O   UNL     1       7.973  -0.373   2.968  0.00  0.00    -0.227 OA
BRANCH  23  25
ATOM     25  O   UNL     1       7.559  -2.691   2.784  0.00  0.00    -0.302 OA
ATOM     26  H   UNL     1       7.957  -3.010   1.960  0.00  0.00    +0.222 HD
ENDBRANCH  23  25
BRANCH  23  27
ATOM     27  O   UNL     1       6.274  -1.188   4.325  0.00  0.00    -0.186 OA
BRANCH  27  28
ATOM     28  P   UNL     1       5.227   0.168   4.565  0.00  0.00    +0.481 P 
ATOM     29  O   UNL     1       4.291   1.382   4.779  0.00  0.00    -0.227 OA
BRANCH  28  30
ATOM     30  O   UNL     1       4.131  -0.959   5.044  0.00  0.00    -0.302 OA
ATOM     31  H   UNL     1       3.922  -1.597   4.337  0.00  0.00    +0.222 HD
ENDBRANCH  28  30
BRANCH  28  32
ATOM     32  O   UNL     1       5.904   0.271   6.053  0.00  0.00    -0.302 OA
ATOM     33  H   UNL     1       5.196   0.053   6.686  0.00  0.00    +0.222 HD
ENDBRANCH  28  32
ENDBRANCH  27  28
ENDBRANCH  23  27
ENDBRANCH  22  23
ENDBRANCH  21  22
ENDBRANCH   4  21
TORSDOF 11
