MODEL 1
REMARK VINA RESULT:    -5.296      0.000      0.000
REMARK INTER + INTRA:          -6.209
REMARK INTER:                  -5.915
REMARK INTRA:                  -0.293
REMARK UNBOUND:                -0.293
REMARK  Name = 114829
REMARK  3 active torsions:
REMARK  status: ('A' for Active; 'I' for Inactive)
REMARK    1  A    between atoms: O_3  and  C_15
REMARK    2  A    between atoms: O_4  and  C_19
REMARK    3  A    between atoms: C_5  and  C_7
REMARK                            x       y       z     vdW  Elec       q    Type
REMARK                         _______ _______ _______ _____ _____    ______ ____
ROOT
ATOM      1  O   UNL     1      29.836  -4.577  31.100  0.00  0.00    +0.000 OA
ATOM      2  O   UNL     1      27.808  -7.350  28.875  0.00  0.00    +0.000 OA
ATOM      3  C   UNL     1      30.077  -5.994  31.214  0.00  0.00    +0.000 C 
ATOM      4  C   UNL     1      29.883  -6.685  29.871  0.00  0.00    +0.000 C 
ATOM      5  C   UNL     1      28.454  -6.494  29.469  0.00  0.00    +0.000 C 
ATOM      6  C   UNL     1      27.882  -5.167  29.757  0.00  0.00    +0.000 A 
ATOM      7  C   UNL     1      28.619  -4.273  30.538  0.00  0.00    +0.000 A 
ATOM      8  C   UNL     1      26.651  -4.799  29.205  0.00  0.00    +0.000 A 
ATOM      9  C   UNL     1      28.125  -2.984  30.739  0.00  0.00    +0.000 A 
ATOM     10  C   UNL     1      26.902  -2.615  30.179  0.00  0.00    +0.000 A 
ATOM     11  C   UNL     1      26.158  -3.512  29.417  0.00  0.00    +0.000 A 
ENDROOT
BRANCH   3  12
ATOM     12  C   UNL     1      31.490  -6.270  31.712  0.00  0.00    +0.000 A 
ATOM     13  C   UNL     1      32.416  -6.880  30.848  0.00  0.00    +0.000 A 
ATOM     14  C   UNL     1      31.931  -5.847  32.976  0.00  0.00    +0.000 A 
ATOM     15  C   UNL     1      33.747  -7.053  31.233  0.00  0.00    +0.000 A 
ATOM     16  C   UNL     1      33.265  -6.021  33.363  0.00  0.00    +0.000 A 
ATOM     17  C   UNL     1      34.163  -6.617  32.484  0.00  0.00    +0.000 A 
BRANCH  17  18
ATOM     18  O   UNL     1      35.477  -6.785  32.807  0.00  0.00    +0.000 OA
ATOM     19  H   UNL     1      35.640  -7.730  32.966  0.00  0.00    +0.000 HD
ENDBRANCH  17  18
ENDBRANCH   3  12
BRANCH  10  20
ATOM     20  O   UNL     1      26.457  -1.344  30.399  0.00  0.00    +0.000 OA
ATOM     21  H   UNL     1      25.510  -1.373  30.615  0.00  0.00    +0.000 HD
ENDBRANCH  10  20
TORSDOF 3
ENDMDL
MODEL 2
REMARK VINA RESULT:    -5.288      1.544      6.476
REMARK INTER + INTRA:          -6.199
REMARK INTER:                  -5.923
REMARK INTRA:                  -0.276
REMARK UNBOUND:                -0.293
REMARK  Name = 114829
REMARK  3 active torsions:
REMARK  status: ('A' for Active; 'I' for Inactive)
REMARK    1  A    between atoms: O_3  and  C_15
REMARK    2  A    between atoms: O_4  and  C_19
REMARK    3  A    between atoms: C_5  and  C_7
REMARK                            x       y       z     vdW  Elec       q    Type
REMARK                         _______ _______ _______ _____ _____    ______ ____
ROOT
ATOM      1  O   UNL     1      30.980  -5.453  31.634  0.00  0.00    +0.000 OA
ATOM      2  O   UNL     1      30.944  -8.927  29.469  0.00  0.00    +0.000 OA
ATOM      3  C   UNL     1      30.422  -5.538  30.308  0.00  0.00    +0.000 C 
ATOM      4  C   UNL     1      29.801  -6.909  30.069  0.00  0.00    +0.000 C 
ATOM      5  C   UNL     1      30.897  -7.923  30.171  0.00  0.00    +0.000 C 
ATOM      6  C   UNL     1      31.888  -7.687  31.235  0.00  0.00    +0.000 A 
ATOM      7  C   UNL     1      31.858  -6.471  31.925  0.00  0.00    +0.000 A 
ATOM      8  C   UNL     1      32.800  -8.690  31.579  0.00  0.00    +0.000 A 
ATOM      9  C   UNL     1      32.733  -6.277  32.993  0.00  0.00    +0.000 A 
ATOM     10  C   UNL     1      33.635  -7.282  33.342  0.00  0.00    +0.000 A 
ATOM     11  C   UNL     1      33.679  -8.485  32.643  0.00  0.00    +0.000 A 
ENDROOT
BRANCH   3  12
ATOM     12  C   UNL     1      29.358  -4.470  30.093  0.00  0.00    +0.000 A 
ATOM     13  C   UNL     1      29.607  -3.424  29.186  0.00  0.00    +0.000 A 
ATOM     14  C   UNL     1      28.094  -4.544  30.699  0.00  0.00    +0.000 A 
ATOM     15  C   UNL     1      28.616  -2.487  28.885  0.00  0.00    +0.000 A 
ATOM     16  C   UNL     1      27.100  -3.603  30.398  0.00  0.00    +0.000 A 
ATOM     17  C   UNL     1      27.370  -2.587  29.488  0.00  0.00    +0.000 A 
BRANCH  17  18
ATOM     18  O   UNL     1      26.426  -1.664  29.146  0.00  0.00    +0.000 OA
ATOM     19  H   UNL     1      25.700  -1.708  29.790  0.00  0.00    +0.000 HD
ENDBRANCH  17  18
ENDBRANCH   3  12
BRANCH  10  20
ATOM     20  O   UNL     1      34.472  -7.052  34.395  0.00  0.00    +0.000 OA
ATOM     21  H   UNL     1      34.952  -7.870  34.603  0.00  0.00    +0.000 HD
ENDBRANCH  10  20
TORSDOF 3
ENDMDL
MODEL 3
REMARK VINA RESULT:    -4.812     25.568     28.505
REMARK INTER + INTRA:          -5.668
REMARK INTER:                  -5.362
REMARK INTRA:                  -0.306
REMARK UNBOUND:                -0.293
REMARK  Name = 114829
REMARK  3 active torsions:
REMARK  status: ('A' for Active; 'I' for Inactive)
REMARK    1  A    between atoms: O_3  and  C_15
REMARK    2  A    between atoms: O_4  and  C_19
REMARK    3  A    between atoms: C_5  and  C_7
REMARK                            x       y       z     vdW  Elec       q    Type
REMARK                         _______ _______ _______ _____ _____    ______ ____
ROOT
ATOM      1  O   UNL     1       7.601   0.510  45.702  0.00  0.00    +0.000 OA
ATOM      2  O   UNL     1       5.469   2.615  42.913  0.00  0.00    +0.000 OA
ATOM      3  C   UNL     1       6.949   1.761  46.002  0.00  0.00    +0.000 C 
ATOM      4  C   UNL     1       5.667   1.910  45.194  0.00  0.00    +0.000 C 
ATOM      5  C   UNL     1       6.046   1.924  43.746  0.00  0.00    +0.000 C 
ATOM      6  C   UNL     1       7.113   0.987  43.356  0.00  0.00    +0.000 A 
ATOM      7  C   UNL     1       7.815   0.312  44.359  0.00  0.00    +0.000 A 
ATOM      8  C   UNL     1       7.369   0.740  42.004  0.00  0.00    +0.000 A 
ATOM      9  C   UNL     1       8.763  -0.644  43.995  0.00  0.00    +0.000 A 
ATOM     10  C   UNL     1       9.010  -0.897  42.646  0.00  0.00    +0.000 A 
ATOM     11  C   UNL     1       8.325  -0.212  41.647  0.00  0.00    +0.000 A 
ENDROOT
BRANCH   3  12
ATOM     12  C   UNL     1       6.615   1.862  47.484  0.00  0.00    +0.000 A 
ATOM     13  C   UNL     1       7.374   1.127  48.412  0.00  0.00    +0.000 A 
ATOM     14  C   UNL     1       5.634   2.741  47.969  0.00  0.00    +0.000 A 
ATOM     15  C   UNL     1       7.165   1.276  49.785  0.00  0.00    +0.000 A 
ATOM     16  C   UNL     1       5.423   2.889  49.345  0.00  0.00    +0.000 A 
ATOM     17  C   UNL     1       6.196   2.159  50.241  0.00  0.00    +0.000 A 
BRANCH  17  18
ATOM     18  O   UNL     1       6.044   2.289  51.590  0.00  0.00    +0.000 OA
ATOM     19  H   UNL     1       6.425   1.507  52.022  0.00  0.00    +0.000 HD
ENDBRANCH  17  18
ENDBRANCH   3  12
BRANCH  10  20
ATOM     20  O   UNL     1       9.944  -1.842  42.335  0.00  0.00    +0.000 OA
ATOM     21  H   UNL     1       9.593  -2.720  42.556  0.00  0.00    +0.000 HD
ENDBRANCH  10  20
TORSDOF 3
ENDMDL
MODEL 4
REMARK VINA RESULT:    -4.627     34.248     36.462
REMARK INTER + INTRA:          -5.462
REMARK INTER:                  -5.164
REMARK INTRA:                  -0.298
REMARK UNBOUND:                -0.293
REMARK  Name = 114829
REMARK  3 active torsions:
REMARK  status: ('A' for Active; 'I' for Inactive)
REMARK    1  A    between atoms: O_3  and  C_15
REMARK    2  A    between atoms: O_4  and  C_19
REMARK    3  A    between atoms: C_5  and  C_7
REMARK                            x       y       z     vdW  Elec       q    Type
REMARK                         _______ _______ _______ _____ _____    ______ ____
ROOT
ATOM      1  O   UNL     1       8.804   4.203  57.527  0.00  0.00    +0.000 OA
ATOM      2  O   UNL     1       8.608   1.117  60.209  0.00  0.00    +0.000 OA
ATOM      3  C   UNL     1       8.071   4.293  58.764  0.00  0.00    +0.000 C 
ATOM      4  C   UNL     1       8.754   3.482  59.858  0.00  0.00    +0.000 C 
ATOM      5  C   UNL     1       8.750   2.050  59.426  0.00  0.00    +0.000 C 
ATOM      6  C   UNL     1       9.014   1.814  57.996  0.00  0.00    +0.000 A 
ATOM      7  C   UNL     1       9.051   2.910  57.129  0.00  0.00    +0.000 A 
ATOM      8  C   UNL     1       9.280   0.520  57.535  0.00  0.00    +0.000 A 
ATOM      9  C   UNL     1       9.389   2.704  55.792  0.00  0.00    +0.000 A 
ATOM     10  C   UNL     1       9.665   1.415  55.336  0.00  0.00    +0.000 A 
ATOM     11  C   UNL     1       9.610   0.321  56.195  0.00  0.00    +0.000 A 
ENDROOT
BRANCH   3  12
ATOM     12  C   UNL     1       7.949   5.739  59.224  0.00  0.00    +0.000 A 
ATOM     13  C   UNL     1       8.510   6.118  60.457  0.00  0.00    +0.000 A 
ATOM     14  C   UNL     1       7.380   6.734  58.414  0.00  0.00    +0.000 A 
ATOM     15  C   UNL     1       8.510   7.455  60.862  0.00  0.00    +0.000 A 
ATOM     16  C   UNL     1       7.379   8.074  58.820  0.00  0.00    +0.000 A 
ATOM     17  C   UNL     1       7.951   8.423  60.039  0.00  0.00    +0.000 A 
BRANCH  17  18
ATOM     18  O   UNL     1       7.995   9.718  60.465  0.00  0.00    +0.000 OA
ATOM     19  H   UNL     1       7.168  10.157  60.208  0.00  0.00    +0.000 HD
ENDBRANCH  17  18
ENDBRANCH   3  12
BRANCH  10  20
ATOM     20  O   UNL     1       9.994   1.259  54.021  0.00  0.00    +0.000 OA
ATOM     21  H   UNL     1       9.201   0.996  53.525  0.00  0.00    +0.000 HD
ENDBRANCH  10  20
TORSDOF 3
ENDMDL
MODEL 5
REMARK VINA RESULT:    -4.490     32.476     33.861
REMARK INTER + INTRA:          -5.309
REMARK INTER:                  -5.003
REMARK INTRA:                  -0.306
REMARK UNBOUND:                -0.293
REMARK  Name = 114829
REMARK  3 active torsions:
REMARK  status: ('A' for Active; 'I' for Inactive)
REMARK    1  A    between atoms: O_3  and  C_15
REMARK    2  A    between atoms: O_4  and  C_19
REMARK    3  A    between atoms: C_5  and  C_7
REMARK                            x       y       z     vdW  Elec       q    Type
REMARK                         _______ _______ _______ _____ _____    ______ ____
ROOT
ATOM      1  O   UNL     1      30.855  19.807  53.910  0.00  0.00    +0.000 OA
ATOM      2  O   UNL     1      28.211  21.135  51.082  0.00  0.00    +0.000 OA
ATOM      3  C   UNL     1      31.119  19.719  52.496  0.00  0.00    +0.000 C 
ATOM      4  C   UNL     1      30.498  20.895  51.755  0.00  0.00    +0.000 C 
ATOM      5  C   UNL     1      29.016  20.820  51.951  0.00  0.00    +0.000 C 
ATOM      6  C   UNL     1      28.570  20.418  53.297  0.00  0.00    +0.000 A 
ATOM      7  C   UNL     1      29.522  19.956  54.210  0.00  0.00    +0.000 A 
ATOM      8  C   UNL     1      27.227  20.555  53.660  0.00  0.00    +0.000 A 
ATOM      9  C   UNL     1      29.121  19.661  55.513  0.00  0.00    +0.000 A 
ATOM     10  C   UNL     1      27.783  19.808  55.878  0.00  0.00    +0.000 A 
ATOM     11  C   UNL     1      26.832  20.249  54.963  0.00  0.00    +0.000 A 
ENDROOT
BRANCH   3  12
ATOM     12  C   UNL     1      32.616  19.695  52.219  0.00  0.00    +0.000 A 
ATOM     13  C   UNL     1      33.511  19.532  53.292  0.00  0.00    +0.000 A 
ATOM     14  C   UNL     1      33.135  19.732  50.915  0.00  0.00    +0.000 A 
ATOM     15  C   UNL     1      34.883  19.400  53.066  0.00  0.00    +0.000 A 
ATOM     16  C   UNL     1      34.510  19.602  50.688  0.00  0.00    +0.000 A 
ATOM     17  C   UNL     1      35.371  19.430  51.767  0.00  0.00    +0.000 A 
BRANCH  17  18
ATOM     18  O   UNL     1      36.715  19.273  51.592  0.00  0.00    +0.000 OA
ATOM     19  H   UNL     1      37.146  20.135  51.717  0.00  0.00    +0.000 HD
ENDBRANCH  17  18
ENDBRANCH   3  12
BRANCH  10  20
ATOM     20  O   UNL     1      27.435  19.510  57.163  0.00  0.00    +0.000 OA
ATOM     21  H   UNL     1      26.798  18.776  57.157  0.00  0.00    +0.000 HD
ENDBRANCH  10  20
TORSDOF 3
ENDMDL
