REMARK  Name = 114829
REMARK  3 active torsions:
REMARK  status: ('A' for Active; 'I' for Inactive)
REMARK    1  A    between atoms: O_3  and  C_15
REMARK    2  A    between atoms: O_4  and  C_19
REMARK    3  A    between atoms: C_5  and  C_7
REMARK                            x       y       z     vdW  Elec       q    Type
REMARK                         _______ _______ _______ _____ _____    ______ ____
ROOT
ATOM      1  O   UNL     1      -1.275   1.327   0.078  0.00  0.00    +0.000 OA
ATOM      2  O   UNL     1      -1.189  -2.757  -0.185  0.00  0.00    +0.000 OA
ATOM      3  C   UNL     1      -2.399   0.553  -0.387  0.00  0.00    +0.000 C 
ATOM      4  C   UNL     1      -2.461  -0.792   0.325  0.00  0.00    +0.000 C 
ATOM      5  C   UNL     1      -1.213  -1.542  -0.020  0.00  0.00    +0.000 C 
ATOM      6  C   UNL     1       0.021  -0.739  -0.071  0.00  0.00    +0.000 A 
ATOM      7  C   UNL     1      -0.079   0.653   0.006  0.00  0.00    +0.000 A 
ATOM      8  C   UNL     1       1.267  -1.371  -0.136  0.00  0.00    +0.000 A 
ATOM      9  C   UNL     1       1.089   1.414   0.050  0.00  0.00    +0.000 A 
ATOM     10  C   UNL     1       2.331   0.782  -0.004  0.00  0.00    +0.000 A 
ATOM     11  C   UNL     1       2.431  -0.603  -0.100  0.00  0.00    +0.000 A 
ENDROOT
BRANCH   3  12
ATOM     12  C   UNL     1      -3.708   1.296  -0.155  0.00  0.00    +0.000 A 
ATOM     13  C   UNL     1      -4.791   1.068  -1.023  0.00  0.00    +0.000 A 
ATOM     14  C   UNL     1      -3.905   2.131   0.956  0.00  0.00    +0.000 A 
ATOM     15  C   UNL     1      -6.037   1.650  -0.780  0.00  0.00    +0.000 A 
ATOM     16  C   UNL     1      -5.154   2.716   1.199  0.00  0.00    +0.000 A 
ATOM     17  C   UNL     1      -6.211   2.464   0.331  0.00  0.00    +0.000 A 
BRANCH  17  18
ATOM     18  O   UNL     1      -7.451   2.991   0.541  0.00  0.00    +0.000 OA
ATOM     19  H   UNL     1      -7.431   3.515   1.359  0.00  0.00    +0.000 HD
ENDBRANCH  17  18
ENDBRANCH   3  12
BRANCH  10  20
ATOM     20  O   UNL     1       3.448   1.564   0.044  0.00  0.00    +0.000 OA
ATOM     21  H   UNL     1       4.235   0.995   0.014  0.00  0.00    +0.000 HD
ENDBRANCH  10  20
TORSDOF 3
