REMARK  Name = 
REMARK  15 active torsions:
REMARK  status: ('A' for Active; 'I' for Inactive)
REMARK    1  A    between atoms: C_1  and  N_2
REMARK    2  A    between atoms: C_4  and  O_9
REMARK    3  A    between atoms: C_7  and  C_13
REMARK    4  A    between atoms: C_8  and  O_14
REMARK    5  A    between atoms: C_13  and  O_16
REMARK    6  A    between atoms: O_16  and  P_18
REMARK    7  A    between atoms: P_18  and  O_19
REMARK    8  A    between atoms: P_18  and  O_20
REMARK    9  A    between atoms: O_19  and  P_22
REMARK   10  A    between atoms: P_22  and  O_23
REMARK   11  A    between atoms: P_22  and  O_24
REMARK   12  A    between atoms: O_23  and  C_26
REMARK   13  A    between atoms: C_27  and  O_30
REMARK   14  A    between atoms: C_29  and  O_33
REMARK   15  A    between atoms: C_32  and  O_34
REMARK                            x       y       z     vdW  Elec       q    Type
REMARK                         _______ _______ _______ _____ _____    ______ ____
ROOT
ATOM      1  P   UNL     1       2.555  -2.232  -3.870  0.00  0.00    +0.483 P 
ATOM      2  O   UNL     1       3.245  -2.331  -5.252  0.00  0.00    -0.227 OA
ENDROOT
BRANCH   1   3
ATOM      3  O   UNL     1       3.314  -0.795  -3.608  0.00  0.00    -0.302 OA
ATOM      4  H   UNL     1       4.276  -0.936  -3.513  0.00  0.00    +0.222 HD
ENDBRANCH   1   3
BRANCH   1   5
ATOM      5  O   UNL     1       1.784  -2.123  -2.325  0.00  0.00    -0.284 OA
BRANCH   5   6
ATOM      6  C   UNL     1       1.873  -0.882  -1.609  0.00  0.00    +0.206 C 
BRANCH   6  10
ATOM      7  C   UNL     1       2.595  -1.409   1.615  0.00  0.00    +0.255 C 
ATOM      8  O   UNL     1       1.802  -1.995   0.567  0.00  0.00    -0.346 OA
ATOM      9  C   UNL     1       2.735   0.090   1.330  0.00  0.00    +0.195 C 
ATOM     10  C   UNL     1       1.218  -0.935  -0.229  0.00  0.00    +0.178 C 
ATOM     11  C   UNL     1       1.453   0.368   0.554  0.00  0.00    +0.178 C 
BRANCH   7  12
ATOM     12  N   UNL     1       3.855  -2.148   1.762  0.00  0.00    -0.271 N 
ATOM     13  C   UNL     1       4.769  -2.183   0.717  0.00  0.00    +0.331 A 
ATOM     14  C   UNL     1       4.120  -2.771   2.968  0.00  0.00    +0.098 A 
ATOM     15  N   UNL     1       5.921  -2.883   0.955  0.00  0.00    -0.275 N 
ATOM     16  O   UNL     1       4.630  -1.638  -0.378  0.00  0.00    -0.246 OA
ATOM     17  C   UNL     1       5.259  -3.428   3.193  0.00  0.00    +0.088 A 
ATOM     18  C   UNL     1       6.261  -3.491   2.125  0.00  0.00    +0.254 A 
ATOM     19  O   UNL     1       7.338  -4.058   2.293  0.00  0.00    -0.268 OA
ATOM     20  H   UNL     1       6.604  -2.901   0.216  0.00  0.00    +0.173 HD
ENDBRANCH   7  12
BRANCH   9  21
ATOM     21  O   UNL     1       2.806   0.868   2.529  0.00  0.00    -0.385 OA
ATOM     22  H   UNL     1       1.886   1.151   2.719  0.00  0.00    +0.210 HD
ENDBRANCH   9  21
BRANCH  11  23
ATOM     23  O   UNL     1       0.412   0.620   1.514  0.00  0.00    -0.386 OA
ATOM     24  H   UNL     1      -0.092  -0.201   1.661  0.00  0.00    +0.210 HD
ENDBRANCH  11  23
ENDBRANCH   6  10
ENDBRANCH   5   6
ENDBRANCH   1   5
BRANCH   1  25
ATOM     25  O   UNL     1       1.137  -1.591  -4.624  0.00  0.00    -0.186 OA
BRANCH  25  26
ATOM     26  P   UNL     1       1.001  -2.222  -6.229  0.00  0.00    +0.486 P 
ATOM     27  O   UNL     1       0.879  -2.787  -7.665  0.00  0.00    -0.227 OA
BRANCH  26  28
ATOM     28  O   UNL     1       0.425  -0.731  -6.629  0.00  0.00    -0.302 OA
ATOM     29  H   UNL     1       1.160  -0.111  -6.770  0.00  0.00    +0.222 HD
ENDBRANCH  26  28
BRANCH  26  30
ATOM     30  O   UNL     1      -0.450  -2.864  -5.769  0.00  0.00    -0.254 OA
BRANCH  30  31
ATOM     31  C   UNL     1      -0.499  -4.209  -5.329  0.00  0.00    +0.293 C 
ATOM     32  C   UNL     1       0.161  -5.275  -6.236  0.00  0.00    +0.202 C 
ATOM     33  O   UNL     1      -1.864  -4.588  -5.097  0.00  0.00    -0.346 OA
ATOM     34  C   UNL     1      -0.615  -5.476  -7.554  0.00  0.00    +0.178 C 
ATOM     35  C   UNL     1      -2.626  -4.625  -6.309  0.00  0.00    +0.197 C 
ATOM     36  C   UNL     1      -2.110  -5.699  -7.269  0.00  0.00    +0.171 C 
BRANCH  32  37
ATOM     37  O   UNL     1       1.551  -4.994  -6.445  0.00  0.00    -0.384 OA
ATOM     38  H   UNL     1       1.614  -4.592  -7.343  0.00  0.00    +0.210 HD
ENDBRANCH  32  37
BRANCH  34  39
ATOM     39  O   UNL     1      -0.068  -6.581  -8.294  0.00  0.00    -0.386 OA
ATOM     40  H   UNL     1      -0.013  -7.355  -7.707  0.00  0.00    +0.210 HD
ENDBRANCH  34  39
BRANCH  36  41
ATOM     41  O   UNL     1      -2.887  -5.701  -8.469  0.00  0.00    -0.387 OA
ATOM     42  H   UNL     1      -2.456  -5.116  -9.117  0.00  0.00    +0.210 HD
ENDBRANCH  36  41
ENDBRANCH  30  31
ENDBRANCH  26  30
ENDBRANCH  25  26
ENDBRANCH   1  25
TORSDOF 15
