REMARK  Name = 
REMARK  4 active torsions:
REMARK  status: ('A' for Active; 'I' for Inactive)
REMARK    1  A    between atoms: P_1  and  O_2
REMARK    2  A    between atoms: P_1  and  O_3
REMARK    3  A    between atoms: P_1  and  O_4
REMARK    4  A    between atoms: O_2  and  C_6
REMARK                            x       y       z     vdW  Elec       q    Type
REMARK                         _______ _______ _______ _____ _____    ______ ____
ROOT
ATOM      1  P   UNL     1       1.035  -0.092  -0.020  0.00  0.00    +0.531 P 
ATOM      2  O   UNL     1       2.583  -0.092  -0.020  0.00  0.00    -0.215 OA
ENDROOT
BRANCH   1   3
ATOM      3  O   UNL     1       0.865   1.422  -0.625  0.00  0.00    -0.293 OA
ATOM      4  H   UNL     1       1.188   1.449  -1.544  0.00  0.00    +0.223 HD
ENDBRANCH   1   3
BRANCH   1   5
ATOM      5  O   UNL     1      -0.695  -0.092  -0.020  0.00  0.00    -0.293 OA
ATOM      6  H   UNL     1      -0.940   0.779   0.350  0.00  0.00    +0.223 HD
ENDBRANCH   1   5
BRANCH   1   7
ATOM      7  O   UNL     1       0.892   0.257   1.580  0.00  0.00    -0.357 OA
BRANCH   7   8
ATOM      8  C   UNL     1       0.946  -0.773   2.437  0.00  0.00    +0.405 C 
ATOM      9  N   UNL     1       0.821  -0.342   3.715  0.00  0.00    -0.295 N 
ATOM     10  O   UNL     1       1.068  -1.947   2.130  0.00  0.00    -0.226 OA
ATOM     11  H   UNL     1       0.777   0.644   3.920  0.00  0.00    +0.148 HD
ATOM     12  H   UNL     1       0.895  -1.016   4.461  0.00  0.00    +0.148 HD
ENDBRANCH   7   8
ENDBRANCH   1   7
TORSDOF 4
