REMARK  Name = 
REMARK  8 active torsions:
REMARK  status: ('A' for Active; 'I' for Inactive)
REMARK    1  A    between atoms: C_1  and  C_6
REMARK    2  A    between atoms: C_2  and  O_16
REMARK    3  A    between atoms: C_3  and  O_15
REMARK    4  A    between atoms: C_4  and  N_7
REMARK    5  A    between atoms: C_6  and  O_17
REMARK    6  A    between atoms: O_17  and  P_18
REMARK    7  A    between atoms: P_18  and  O_19
REMARK    8  A    between atoms: P_18  and  O_21
REMARK                            x       y       z     vdW  Elec       q    Type
REMARK                         _______ _______ _______ _____ _____    ______ ____
ROOT
ATOM      1  C   UNL     1       1.390  -0.771  -0.229  0.00  0.00    +0.178 C 
ATOM      2  C   UNL     1      -0.133  -0.884  -0.326  0.00  0.00    +0.178 C 
ATOM      3  C   UNL     1      -0.553   0.560  -0.530  0.00  0.00    +0.195 C 
ATOM      4  C   UNL     1       0.458   1.323   0.345  0.00  0.00    +0.255 C 
ATOM      5  O   UNL     1       1.668   0.538   0.302  0.00  0.00    -0.346 OA
ENDROOT
BRANCH   4   6
ATOM      6  N   UNL     1       0.785   2.696  -0.040  0.00  0.00    -0.270 N 
ATOM      7  C   UNL     1       1.698   3.381   0.780  0.00  0.00    +0.352 A 
ATOM      8  C   UNL     1       0.117   3.364  -1.047  0.00  0.00    +0.096 A 
ATOM      9  N   UNL     1       2.048   4.670   0.435  0.00  0.00    -0.178 NA
ATOM     10  O   UNL     1       2.179   2.865   1.785  0.00  0.00    -0.244 OA
ATOM     11  C   UNL     1       0.394   4.629  -1.346  0.00  0.00    +0.061 A 
ATOM     12  C   UNL     1       1.446   5.266  -0.542  0.00  0.00    +0.123 A 
ATOM     13  N   UNL     1       1.820   6.551  -0.822  0.00  0.00    -0.343 N 
ATOM     14  H   UNL     1       2.688   6.818  -0.371  0.00  0.00    +0.144 HD
ATOM     15  H   UNL     1       1.727   6.878  -1.774  0.00  0.00    +0.144 HD
ENDBRANCH   4   6
BRANCH   3  16
ATOM     16  O   UNL     1      -1.911   0.781  -0.155  0.00  0.00    -0.385 OA
ATOM     17  H   UNL     1      -2.114   0.095   0.518  0.00  0.00    +0.210 HD
ENDBRANCH   3  16
BRANCH   2  18
ATOM     18  O   UNL     1      -0.746  -1.347   0.888  0.00  0.00    -0.386 OA
ATOM     19  H   UNL     1      -0.081  -1.351   1.599  0.00  0.00    +0.210 HD
ENDBRANCH   2  18
BRANCH   1  20
ATOM     20  C   UNL     1       2.084  -0.885  -1.587  0.00  0.00    +0.206 C 
BRANCH  20  21
ATOM     21  O   UNL     1       3.512  -0.896  -1.425  0.00  0.00    -0.284 OA
BRANCH  21  22
ATOM     22  P   UNL     1       4.411  -1.021  -2.898  0.00  0.00    +0.472 P 
ATOM     23  O   UNL     1       3.518  -2.150  -3.408  0.00  0.00    -0.228 OA
BRANCH  22  24
ATOM     24  O   UNL     1       5.649  -1.697  -2.090  0.00  0.00    -0.303 OA
ATOM     25  H   UNL     1       6.196  -1.074  -1.587  0.00  0.00    +0.222 HD
ENDBRANCH  22  24
BRANCH  22  26
ATOM     26  O   UNL     1       5.309  -1.146  -4.371  0.00  0.00    -0.303 OA
ATOM     27  H   UNL     1       5.930  -0.408  -4.479  0.00  0.00    +0.222 HD
ENDBRANCH  22  26
ENDBRANCH  21  22
ENDBRANCH  20  21
ENDBRANCH   1  20
TORSDOF 8
