REMARK  Name = 
REMARK  13 active torsions:
REMARK  status: ('A' for Active; 'I' for Inactive)
REMARK    1  A    between atoms: C_1  and  O_2
REMARK    2  A    between atoms: C_1  and  C_5
REMARK    3  A    between atoms: O_2  and  C_6
REMARK    4  A    between atoms: C_4  and  O_9
REMARK    5  A    between atoms: C_5  and  O_10
REMARK    6  A    between atoms: C_7  and  C_13
REMARK    7  A    between atoms: C_8  and  O_14
REMARK    8  A    between atoms: C_12  and  O_17
REMARK    9  A    between atoms: C_13  and  O_18
REMARK   10  A    between atoms: C_15  and  C_20
REMARK   11  A    between atoms: C_16  and  O_21
REMARK   12  A    between atoms: C_19  and  O_22
REMARK   13  A    between atoms: C_20  and  O_23
REMARK                            x       y       z     vdW  Elec       q    Type
REMARK                         _______ _______ _______ _____ _____    ______ ____
ROOT
ATOM      1  O   UNL     1       0.812  -1.901   0.989  0.00  0.00    -0.313 OA
ENDROOT
BRANCH   1   2
ATOM      2  C   UNL     1       0.735  -1.069   2.134  0.00  0.00    +0.285 C 
ATOM      3  O   UNL     1      -0.616  -0.778   2.487  0.00  0.00    -0.340 OA
ATOM      4  C   UNL     1       1.468  -1.808   3.293  0.00  0.00    +0.201 C 
ATOM      5  C   UNL     1      -1.381  -1.933   2.874  0.00  0.00    +0.178 C 
ATOM      6  C   UNL     1       0.711  -3.099   3.631  0.00  0.00    +0.179 C 
ATOM      7  C   UNL     1      -0.731  -2.752   3.998  0.00  0.00    +0.177 C 
BRANCH   4   8
ATOM      8  O   UNL     1       2.830  -2.121   2.961  0.00  0.00    -0.384 OA
ATOM      9  H   UNL     1       2.892  -2.156   1.985  0.00  0.00    +0.210 HD
ENDBRANCH   4   8
BRANCH   6  10
ATOM     10  O   UNL     1       1.288  -3.799   4.744  0.00  0.00    -0.386 OA
ATOM     11  H   UNL     1       2.186  -4.060   4.459  0.00  0.00    +0.210 HD
ENDBRANCH   6  10
BRANCH   7  12
ATOM     12  O   UNL     1      -1.469  -3.961   4.231  0.00  0.00    -0.386 OA
ATOM     13  H   UNL     1      -0.853  -4.548   4.719  0.00  0.00    +0.210 HD
ENDBRANCH   7  12
BRANCH   5  14
ATOM     14  C   UNL     1      -2.782  -1.455   3.287  0.00  0.00    +0.190 C 
BRANCH  14  15
ATOM     15  O   UNL     1      -3.691  -2.529   3.486  0.00  0.00    -0.392 OA
ATOM     16  H   UNL     1      -3.195  -3.256   3.921  0.00  0.00    +0.210 HD
ENDBRANCH  14  15
ENDBRANCH   5  14
ENDBRANCH   1   2
BRANCH   1  17
ATOM     17  C   UNL     1       0.807  -1.325  -0.319  0.00  0.00    +0.225 C 
ATOM     18  O   UNL     1       1.550  -0.080  -0.418  0.00  0.00    -0.336 OA
ATOM     19  C   UNL     1      -0.591  -1.069  -0.943  0.00  0.00    +0.207 C 
ATOM     20  C   UNL     1       0.741   0.838  -1.200  0.00  0.00    +0.178 C 
ATOM     21  C   UNL     1      -0.699   0.450  -0.905  0.00  0.00    +0.179 C 
BRANCH  19  22
ATOM     22  O   UNL     1      -1.684  -1.749  -0.355  0.00  0.00    -0.384 OA
ATOM     23  H   UNL     1      -2.015  -1.207   0.384  0.00  0.00    +0.210 HD
ENDBRANCH  19  22
BRANCH  21  24
ATOM     24  O   UNL     1      -1.612   0.975  -1.859  0.00  0.00    -0.386 OA
ATOM     25  H   UNL     1      -1.493   0.522  -2.714  0.00  0.00    +0.210 HD
ENDBRANCH  21  24
BRANCH  17  26
ATOM     26  C   UNL     1       1.564  -2.364  -1.186  0.00  0.00    +0.223 C 
BRANCH  26  27
ATOM     27  O   UNL     1       2.940  -2.448  -0.782  0.00  0.00    -0.390 OA
ATOM     28  H   UNL     1       3.290  -1.540  -0.838  0.00  0.00    +0.210 HD
ENDBRANCH  26  27
ENDBRANCH  17  26
BRANCH  20  29
ATOM     29  C   UNL     1       1.088   2.276  -0.858  0.00  0.00    +0.190 C 
BRANCH  29  30
ATOM     30  O   UNL     1       2.422   2.551  -1.288  0.00  0.00    -0.392 OA
ATOM     31  H   UNL     1       2.977   1.824  -0.956  0.00  0.00    +0.210 HD
ENDBRANCH  29  30
ENDBRANCH  20  29
ENDBRANCH   1  17
TORSDOF 13
