REMARK  Name = 
REMARK  13 active torsions:
REMARK  status: ('A' for Active; 'I' for Inactive)
REMARK    1  A    between atoms: N_1  and  C_2
REMARK    2  A    between atoms: C_5  and  O_11
REMARK    3  A    between atoms: C_10  and  O_15
REMARK    4  A    between atoms: C_12  and  C_16
REMARK    5  A    between atoms: O_15  and  P_19
REMARK    6  A    between atoms: C_16  and  O_20
REMARK    7  A    between atoms: P_19  and  O_21
REMARK    8  A    between atoms: P_19  and  O_22
REMARK    9  A    between atoms: O_20  and  P_24
REMARK   10  A    between atoms: P_24  and  O_25
REMARK   11  A    between atoms: P_24  and  O_26
REMARK   12  A    between atoms: O_25  and  S_28
REMARK   13  A    between atoms: S_28  and  O_29
REMARK                            x       y       z     vdW  Elec       q    Type
REMARK                         _______ _______ _______ _____ _____    ______ ____
ROOT
ATOM      1  C   UNL     1       2.034   2.350  -0.167  0.00  0.00    +0.253 C 
ATOM      2  C   UNL     1       1.499   2.764   1.209  0.00  0.00    +0.196 C 
ATOM      3  O   UNL     1       1.502   3.338  -1.096  0.00  0.00    -0.346 OA
ATOM      4  C   UNL     1       1.538   4.277   1.095  0.00  0.00    +0.194 C 
ATOM      5  C   UNL     1       1.053   4.485  -0.336  0.00  0.00    +0.179 C 
ENDROOT
BRANCH   1   6
ATOM      6  N   UNL     1       3.482   2.318  -0.293  0.00  0.00    -0.286 N 
ATOM      7  C   UNL     1       4.341   1.578   0.475  0.00  0.00    +0.167 A 
ATOM      8  C   UNL     1       4.235   2.932  -1.261  0.00  0.00    +0.203 A 
ATOM      9  C   UNL     1       5.591   1.778  -0.088  0.00  0.00    +0.147 A 
ATOM     10  N   UNL     1       4.044   0.810   1.535  0.00  0.00    -0.216 NA
ATOM     11  N   UNL     1       5.514   2.641  -1.160  0.00  0.00    -0.231 NA
ATOM     12  C   UNL     1       6.667   1.087   0.494  0.00  0.00    +0.147 A 
ATOM     13  C   UNL     1       5.158   0.233   2.037  0.00  0.00    +0.225 A 
ATOM     14  N   UNL     1       6.429   0.325   1.585  0.00  0.00    -0.219 NA
ATOM     15  N   UNL     1       7.962   1.146  -0.003  0.00  0.00    -0.341 N 
ATOM     16  H   UNL     1       8.138   1.958  -0.584  0.00  0.00    +0.144 HD
ATOM     17  H   UNL     1       8.657   0.895   0.687  0.00  0.00    +0.144 HD
ENDBRANCH   1   6
BRANCH   2  18
ATOM     18  O   UNL     1       0.132   2.336   1.426  0.00  0.00    -0.385 OA
ATOM     19  H   UNL     1      -0.387   2.526   0.622  0.00  0.00    +0.210 HD
ENDBRANCH   2  18
BRANCH   4  20
ATOM     20  O   UNL     1       0.686   4.931   2.014  0.00  0.00    -0.278 OA
BRANCH  20  21
ATOM     21  P   UNL     1       1.063   4.822   3.568  0.00  0.00    +0.473 P 
ATOM     22  O   UNL     1       2.491   5.060   3.907  0.00  0.00    -0.228 OA
BRANCH  21  23
ATOM     23  O   UNL     1       0.029   5.826   4.250  0.00  0.00    -0.303 OA
ATOM     24  H   UNL     1       0.450   6.695   4.377  0.00  0.00    +0.222 HD
ENDBRANCH  21  23
BRANCH  21  25
ATOM     25  O   UNL     1       0.502   3.389   3.979  0.00  0.00    -0.303 OA
ATOM     26  H   UNL     1      -0.163   3.058   3.342  0.00  0.00    +0.222 HD
ENDBRANCH  21  25
ENDBRANCH  20  21
ENDBRANCH   4  20
BRANCH   5  27
ATOM     27  C   UNL     1       1.535   5.786  -0.972  0.00  0.00    +0.206 C 
BRANCH  27  28
ATOM     28  O   UNL     1       2.946   5.888  -0.855  0.00  0.00    -0.283 OA
BRANCH  28  29
ATOM     29  P   UNL     1       3.628   7.270  -1.308  0.00  0.00    +0.498 P 
ATOM     30  O   UNL     1       2.798   8.161  -2.167  0.00  0.00    -0.225 OA
BRANCH  29  31
ATOM     31  O   UNL     1       4.861   6.670  -2.148  0.00  0.00    -0.301 OA
ATOM     32  H   UNL     1       4.574   6.258  -2.984  0.00  0.00    +0.222 HD
ENDBRANCH  29  31
BRANCH  29  33
ATOM     33  O   UNL     1       4.388   7.871  -0.052  0.00  0.00    -0.109 OA
BRANCH  33  34
ATOM     34  S   UNL     1       3.304   8.342   1.023  0.00  0.00    +0.216 S 
ATOM     35  O   UNL     1       2.525   9.427   0.483  0.00  0.00    -0.118 OA
ATOM     36  O   UNL     1       2.675   7.199   1.629  0.00  0.00    -0.118 OA
BRANCH  34  37
ATOM     37  O   UNL     1       4.222   9.032   2.152  0.00  0.00    -0.231 OA
ATOM     38  H   UNL     1       4.360   9.968   1.904  0.00  0.00    +0.247 HD
ENDBRANCH  34  37
ENDBRANCH  33  34
ENDBRANCH  29  33
ENDBRANCH  28  29
ENDBRANCH  27  28
ENDBRANCH   5  27
TORSDOF 13
