REMARK  Name = 
REMARK  8 active torsions:
REMARK  status: ('A' for Active; 'I' for Inactive)
REMARK    1  A    between atoms: C_1  and  C_4
REMARK    2  A    between atoms: C_2  and  C_6
REMARK    3  A    between atoms: C_4  and  O_8
REMARK    4  A    between atoms: C_5  and  O_10
REMARK    5  A    between atoms: O_8  and  P_12
REMARK    6  A    between atoms: C_9  and  C_13
REMARK    7  A    between atoms: P_12  and  O_14
REMARK    8  A    between atoms: P_12  and  O_15
REMARK                            x       y       z     vdW  Elec       q    Type
REMARK                         _______ _______ _______ _____ _____    ______ ____
ROOT
ATOM      1  C   UNL     1       1.536   0.919  -0.093  0.00  0.00    +0.010 A 
ATOM      2  C   UNL     1       0.213   1.406  -0.069  0.00  0.00    +0.064 A 
ATOM      3  C   UNL     1       1.690  -0.459  -0.073  0.00  0.00    +0.117 A 
ATOM      4  C   UNL     1      -0.868   0.503  -0.043  0.00  0.00    +0.148 A 
ATOM      5  N   UNL     1       0.673  -1.345  -0.045  0.00  0.00    -0.256 NA
ATOM      6  C   UNL     1      -0.593  -0.862  -0.036  0.00  0.00    +0.080 A 
ATOM      7  C   UNL     1      -1.681  -1.895  -0.004  0.00  0.00    +0.069 C 
ENDROOT
BRANCH   2   8
ATOM      8  C   UNL     1      -0.085   2.864  -0.030  0.00  0.00    +0.262 C 
ATOM      9  O   UNL     1      -1.240   3.279  -0.019  0.00  0.00    -0.296 OA
ENDBRANCH   2   8
BRANCH   4  10
ATOM     10  O   UNL     1      -2.174   0.915  -0.023  0.00  0.00    -0.504 OA
ATOM     11  H   UNL     1      -2.194   1.901  -0.026  0.00  0.00    +0.292 HD
ENDBRANCH   4  10
BRANCH   1  12
ATOM     12  C   UNL     1       2.752   1.810  -0.079  0.00  0.00    +0.210 C 
BRANCH  12  13
ATOM     13  O   UNL     1       3.892   1.183  -0.675  0.00  0.00    -0.282 OA
BRANCH  13  14
ATOM     14  P   UNL     1       5.409   2.013  -0.636  0.00  0.00    +0.473 P 
ATOM     15  O   UNL     1       6.767   2.756  -0.601  0.00  0.00    -0.228 OA
BRANCH  14  16
ATOM     16  O   UNL     1       4.602   3.430  -0.749  0.00  0.00    -0.303 OA
ATOM     17  H   UNL     1       5.258   4.106  -1.012  0.00  0.00    +0.222 HD
ENDBRANCH  14  16
BRANCH  14  18
ATOM     18  O   UNL     1       5.373   1.800   0.986  0.00  0.00    -0.303 OA
ATOM     19  H   UNL     1       5.839   0.981   1.233  0.00  0.00    +0.222 HD
ENDBRANCH  14  18
ENDBRANCH  13  14
ENDBRANCH  12  13
ENDBRANCH   1  12
TORSDOF 7
