REMARK  Name = 
REMARK  4 active torsions:
REMARK  status: ('A' for Active; 'I' for Inactive)
REMARK    1  A    between atoms: C_1  and  C_2
REMARK    2  A    between atoms: C_1  and  C_3
REMARK    3  A    between atoms: C_2  and  O_4
REMARK    4  A    between atoms: C_3  and  N_6
REMARK                            x       y       z     vdW  Elec       q    Type
REMARK                         _______ _______ _______ _____ _____    ______ ____
ROOT
ATOM      1  C   UNL     1       1.082  -0.095  -0.039  0.00  0.00    +0.135 C 
ENDROOT
BRANCH   1   2
ATOM      2  C   UNL     1       0.590  -1.331   0.665  0.00  0.00    +0.306 C 
ATOM      3  O   UNL     1       0.403  -1.401   1.871  0.00  0.00    -0.251 OA
BRANCH   2   4
ATOM      4  O   UNL     1       0.387  -2.385  -0.156  0.00  0.00    -0.481 OA
ATOM      5  H   UNL     1       0.546  -2.200  -1.100  0.00  0.00    +0.295 HD
ENDBRANCH   2   4
ENDBRANCH   1   2
BRANCH   1   6
ATOM      6  C   UNL     1       2.602  -0.055  -0.056  0.00  0.00    +0.089 C 
BRANCH   6   7
ATOM      7  N   UNL     1       3.069   1.169  -0.703  0.00  0.00    -0.329 NA
ATOM      8  H   UNL     1       2.771   1.205  -1.676  0.00  0.00    +0.118 HD
ATOM      9  H   UNL     1       4.089   1.190  -0.711  0.00  0.00    +0.118 HD
ENDBRANCH   6   7
ENDBRANCH   1   6
TORSDOF 4
