REMARK  Name = 
REMARK  5 active torsions:
REMARK  status: ('A' for Active; 'I' for Inactive)
REMARK    1  A    between atoms: CG_1  and  CB_7
REMARK    2  A    between atoms: CB_7  and  CA_8
REMARK    3  A    between atoms: CA_8  and  C_9
REMARK    4  A    between atoms: CA_8  and  N_12
REMARK    5  A    between atoms: C_9  and  O_10
REMARK                            x       y       z     vdW  Elec       q    Type
REMARK                         _______ _______ _______ _____ _____    ______ ____
ROOT
ATOM      1  CA  PHE A   1       3.138  -2.112   0.064  0.00  0.00    +0.165 C 
ENDROOT
BRANCH   1   2
ATOM      2  N   PHE A   1       4.616  -2.213   0.156  0.00  0.00    -0.318 NA
ATOM      3  H1  PHE A   1       5.115  -1.707  -0.570  0.00  0.00    +0.119 HD
ATOM      4  H2  PHE A   1       4.946  -3.161   0.313  0.00  0.00    +0.119 HD
ENDBRANCH   1   2
BRANCH   1   5
ATOM      5  C   PHE A   1       2.591  -2.838  -1.196  0.00  0.00    +0.322 C 
ATOM      6  OXT PHE A   1       1.408  -3.006  -1.458  0.00  0.00    -0.249 OA
BRANCH   5   7
ATOM      7  O   PHE A   1       3.565  -3.338  -1.998  0.00  0.00    -0.480 OA
ATOM      8  H   PHE A   1       4.443  -3.170  -1.614  0.00  0.00    +0.295 HD
ENDBRANCH   5   7
ENDBRANCH   1   5
BRANCH   1   9
ATOM      9  CB  PHE A   1       2.728  -0.627   0.108  0.00  0.00    +0.065 C 
BRANCH   9  10
ATOM     10  CG  PHE A   1       1.248  -0.305   0.132  0.00  0.00    -0.045 A 
ATOM     11  CD1 PHE A   1       0.302  -1.150   0.726  0.00  0.00    +0.004 A 
ATOM     12  CE1 PHE A   1      -1.062  -0.856   0.657  0.00  0.00    +0.000 A 
ATOM     13  CZ  PHE A   1      -1.495   0.311   0.037  0.00  0.00    +0.000 A 
ATOM     14  CE2 PHE A   1      -0.563   1.196  -0.500  0.00  0.00    +0.000 A 
ATOM     15  CD2 PHE A   1       0.799   0.892  -0.449  0.00  0.00    +0.004 A 
ENDBRANCH   9  10
ENDBRANCH   1   9
TORSDOF 5
