REMARK  Name = 
REMARK  4 active torsions:
REMARK  status: ('A' for Active; 'I' for Inactive)
REMARK    1  A    between atoms: C_1  and  S_2
REMARK    2  A    between atoms: C_1  and  C_3
REMARK    3  A    between atoms: S_2  and  O_4
REMARK    4  A    between atoms: C_3  and  N_5
REMARK                            x       y       z     vdW  Elec       q    Type
REMARK                         _______ _______ _______ _____ _____    ______ ____
ROOT
ATOM      1  C   UNL     1       0.942  -0.074   0.044  0.00  0.00    +0.212 C 
ENDROOT
BRANCH   1   2
ATOM      2  S   UNL     1       0.363  -1.169   1.326  0.00  0.00    +0.081 S 
ATOM      3  O   UNL     1       0.648  -2.538   0.958  0.00  0.00    -0.147 OA
ATOM      4  O   UNL     1       0.683  -0.630   2.626  0.00  0.00    -0.147 OA
BRANCH   2   5
ATOM      5  O   UNL     1      -1.222  -0.978   1.079  0.00  0.00    -0.254 OA
ATOM      6  H   UNL     1      -1.601  -1.851   0.843  0.00  0.00    +0.244 HD
ENDBRANCH   2   5
ENDBRANCH   1   2
BRANCH   1   7
ATOM      7  C   UNL     1       2.460  -0.060   0.015  0.00  0.00    +0.103 C 
BRANCH   7   8
ATOM      8  N   UNL     1       2.953   0.828  -1.042  0.00  0.00    -0.328 NA
ATOM      9  H   UNL     1       2.697   0.462  -1.959  0.00  0.00    +0.118 HD
ATOM     10  H   UNL     1       3.973   0.842  -1.022  0.00  0.00    +0.118 HD
ENDBRANCH   7   8
ENDBRANCH   1   7
TORSDOF 4
