REMARK  Name = 
REMARK  3 active torsions:
REMARK  status: ('A' for Active; 'I' for Inactive)
REMARK    1  A    between atoms: C_1  and  C_2
REMARK    2  A    between atoms: C_1  and  O_3
REMARK    3  A    between atoms: C_2  and  C_5
REMARK                            x       y       z     vdW  Elec       q    Type
REMARK                         _______ _______ _______ _____ _____    ______ ____
ROOT
ATOM      1  C   UNL     1       1.064  -0.012  -0.147  0.00  0.00    +0.304 C 
ATOM      2  O   UNL     1       2.280  -0.011  -0.234  0.00  0.00    -0.251 OA
ENDROOT
BRANCH   1   3
ATOM      3  C   UNL     1       0.276  -0.057   1.141  0.00  0.00    +0.117 C 
ATOM      4  C   UNL     1       1.183  -0.100   2.359  0.00  0.00    +0.015 C 
ENDBRANCH   1   3
BRANCH   1   5
ATOM      5  O   UNL     1       0.261   0.027  -1.237  0.00  0.00    -0.481 OA
ATOM      6  H   UNL     1      -0.691   0.021  -1.024  0.00  0.00    +0.295 HD
ENDBRANCH   1   5
TORSDOF 2
