REMARK  Name = 
REMARK  7 active torsions:
REMARK  status: ('A' for Active; 'I' for Inactive)
REMARK    1  A    between atoms: C_1  and  C_4
REMARK    2  A    between atoms: C_1  and  O_5
REMARK    3  A    between atoms: C_2  and  O_7
REMARK    4  A    between atoms: C_4  and  O_9
REMARK    5  A    between atoms: C_6  and  O_10
REMARK    6  A    between atoms: C_8  and  C_11
REMARK    7  A    between atoms: C_11  and  O_12
REMARK                            x       y       z     vdW  Elec       q    Type
REMARK                         _______ _______ _______ _____ _____    ______ ____
ROOT
ATOM      1  C   UNL     1      -0.777  -0.947  -0.258  0.00  0.00    +0.220 C 
ATOM      2  C   UNL     1       0.754  -1.107  -0.077  0.00  0.00    +0.207 C 
ATOM      3  O   UNL     1      -1.086   0.456  -0.273  0.00  0.00    -0.336 OA
ATOM      4  C   UNL     1       1.290   0.313   0.055  0.00  0.00    +0.179 C 
ATOM      5  C   UNL     1       0.128   1.230  -0.303  0.00  0.00    +0.178 C 
ENDROOT
BRANCH   1   6
ATOM      6  O   UNL     1      -1.503  -1.532   0.823  0.00  0.00    -0.361 OA
ATOM      7  H   UNL     1      -0.962  -1.485   1.626  0.00  0.00    +0.213 HD
ENDBRANCH   1   6
BRANCH   2   8
ATOM      8  O   UNL     1       1.428  -1.794  -1.134  0.00  0.00    -0.384 OA
ATOM      9  H   UNL     1       1.029  -1.519  -1.988  0.00  0.00    +0.210 HD
ENDBRANCH   2   8
BRANCH   4  10
ATOM     10  O   UNL     1       1.717   0.550   1.404  0.00  0.00    -0.386 OA
ATOM     11  H   UNL     1       0.933   0.649   1.975  0.00  0.00    +0.210 HD
ENDBRANCH   4  10
BRANCH   1  12
ATOM     12  C   UNL     1      -1.334  -1.575  -1.554  0.00  0.00    +0.223 C 
BRANCH  12  13
ATOM     13  O   UNL     1      -0.711  -1.033  -2.724  0.00  0.00    -0.390 OA
ATOM     14  H   UNL     1      -1.324  -0.353  -3.070  0.00  0.00    +0.210 HD
ENDBRANCH  12  13
ENDBRANCH   1  12
BRANCH   5  15
ATOM     15  C   UNL     1       0.288   1.861  -1.690  0.00  0.00    +0.190 C 
BRANCH  15  16
ATOM     16  O   UNL     1      -0.869   2.628  -2.020  0.00  0.00    -0.392 OA
ATOM     17  H   UNL     1      -1.641   2.117  -1.709  0.00  0.00    +0.210 HD
ENDBRANCH  15  16
ENDBRANCH   5  15
TORSDOF 7
