REMARK  Name = 
REMARK  11 active torsions:
REMARK  status: ('A' for Active; 'I' for Inactive)
REMARK    1  A    between atoms: N_1  and  C_3
REMARK    2  A    between atoms: C_8  and  O_14
REMARK    3  A    between atoms: C_12  and  C_17
REMARK    4  A    between atoms: C_13  and  O_18
REMARK    5  A    between atoms: C_17  and  O_19
REMARK    6  A    between atoms: O_19  and  P_20
REMARK    7  A    between atoms: P_20  and  O_21
REMARK    8  A    between atoms: P_20  and  O_22
REMARK    9  A    between atoms: O_21  and  P_24
REMARK   10  A    between atoms: P_24  and  O_25
REMARK   11  A    between atoms: P_24  and  O_26
REMARK                            x       y       z     vdW  Elec       q    Type
REMARK                         _______ _______ _______ _____ _____    ______ ____
ROOT
ATOM      1  C   UNL     1       2.022  -2.476   0.013  0.00  0.00    +0.253 C 
ATOM      2  O   UNL     1       2.771  -2.798   1.219  0.00  0.00    -0.346 OA
ATOM      3  C   UNL     1       2.947  -2.755  -1.175  0.00  0.00    +0.195 C 
ATOM      4  C   UNL     1       3.984  -3.491   0.847  0.00  0.00    +0.178 C 
ATOM      5  C   UNL     1       3.835  -3.858  -0.624  0.00  0.00    +0.178 C 
ENDROOT
BRANCH   1   6
ATOM      6  N   UNL     1       1.550  -1.106   0.069  0.00  0.00    -0.285 N 
ATOM      7  C   UNL     1       0.386  -0.641  -0.482  0.00  0.00    +0.169 A 
ATOM      8  C   UNL     1       2.188  -0.029   0.629  0.00  0.00    +0.203 A 
ATOM      9  C   UNL     1       0.396   0.718  -0.242  0.00  0.00    +0.172 A 
ATOM     10  N   UNL     1      -0.553  -1.371  -1.132  0.00  0.00    -0.218 NA
ATOM     11  N   UNL     1       1.521   1.094   0.446  0.00  0.00    -0.229 NA
ATOM     12  C   UNL     1      -0.722   1.505  -0.727  0.00  0.00    +0.279 A 
ATOM     13  C   UNL     1      -1.534  -0.642  -1.566  0.00  0.00    +0.201 A 
ATOM     14  N   UNL     1      -1.656   0.726  -1.397  0.00  0.00    -0.312 N 
ATOM     15  O   UNL     1      -0.865   2.721  -0.597  0.00  0.00    -0.265 OA
ATOM     16  H   UNL     1      -2.452   1.226  -1.763  0.00  0.00    +0.170 HD
ENDBRANCH   1   6
BRANCH   3  17
ATOM     17  O   UNL     1       2.269  -3.191  -2.349  0.00  0.00    -0.385 OA
ATOM     18  H   UNL     1       2.182  -4.164  -2.288  0.00  0.00    +0.210 HD
ENDBRANCH   3  17
BRANCH   5  19
ATOM     19  O   UNL     1       3.148  -5.118  -0.758  0.00  0.00    -0.386 OA
ATOM     20  H   UNL     1       2.483  -5.213  -0.050  0.00  0.00    +0.210 HD
ENDBRANCH   5  19
BRANCH   4  21
ATOM     21  C   UNL     1       5.214  -2.617   1.150  0.00  0.00    +0.206 C 
BRANCH  21  22
ATOM     22  O   UNL     1       5.311  -2.282   2.537  0.00  0.00    -0.284 OA
BRANCH  22  23
ATOM     23  P   UNL     1       5.382  -3.649   3.595  0.00  0.00    +0.483 P 
ATOM     24  O   UNL     1       5.446  -4.873   4.542  0.00  0.00    -0.227 OA
BRANCH  23  25
ATOM     25  O   UNL     1       3.911  -3.157   4.137  0.00  0.00    -0.302 OA
ATOM     26  H   UNL     1       3.155  -3.562   3.682  0.00  0.00    +0.222 HD
ENDBRANCH  23  25
BRANCH  23  27
ATOM     27  O   UNL     1       6.303  -2.723   4.730  0.00  0.00    -0.186 OA
BRANCH  27  28
ATOM     28  P   UNL     1       7.989  -2.901   4.385  0.00  0.00    +0.481 P 
ATOM     29  O   UNL     1       9.498  -3.061   4.077  0.00  0.00    -0.227 OA
BRANCH  28  30
ATOM     30  O   UNL     1       7.780  -1.634   3.374  0.00  0.00    -0.302 OA
ATOM     31  H   UNL     1       7.685  -0.842   3.938  0.00  0.00    +0.222 HD
ENDBRANCH  28  30
BRANCH  28  32
ATOM     32  O   UNL     1       8.223  -1.954   5.705  0.00  0.00    -0.302 OA
ATOM     33  H   UNL     1       8.090  -2.461   6.526  0.00  0.00    +0.222 HD
ENDBRANCH  28  32
ENDBRANCH  27  28
ENDBRANCH  23  27
ENDBRANCH  22  23
ENDBRANCH  21  22
ENDBRANCH   4  21
TORSDOF 11
