REMARK  Name = 
REMARK  17 active torsions:
REMARK  status: ('A' for Active; 'I' for Inactive)
REMARK    1  A    between atoms: C_1  and  N_2
REMARK    2  A    between atoms: C_4  and  O_9
REMARK    3  A    between atoms: C_7  and  C_13
REMARK    4  A    between atoms: C_8  and  O_14
REMARK    5  A    between atoms: C_13  and  O_16
REMARK    6  A    between atoms: O_16  and  P_18
REMARK    7  A    between atoms: P_18  and  O_19
REMARK    8  A    between atoms: P_18  and  O_20
REMARK    9  A    between atoms: O_19  and  P_22
REMARK   10  A    between atoms: P_22  and  O_23
REMARK   11  A    between atoms: P_22  and  O_24
REMARK   12  A    between atoms: O_23  and  C_26
REMARK   13  A    between atoms: C_28  and  O_31
REMARK   14  A    between atoms: C_29  and  C_33
REMARK   15  A    between atoms: C_30  and  O_34
REMARK   16  A    between atoms: C_32  and  O_35
REMARK   17  A    between atoms: C_33  and  O_36
REMARK                            x       y       z     vdW  Elec       q    Type
REMARK                         _______ _______ _______ _____ _____    ______ ____
ROOT
ATOM      1  P   UNL     1       2.555  -2.232  -3.870  0.00  0.00    +0.483 P 
ATOM      2  O   UNL     1       3.245  -2.331  -5.252  0.00  0.00    -0.227 OA
ENDROOT
BRANCH   1   3
ATOM      3  O   UNL     1       2.921  -0.646  -3.677  0.00  0.00    -0.302 OA
ATOM      4  H   UNL     1       3.882  -0.494  -3.634  0.00  0.00    +0.222 HD
ENDBRANCH   1   3
BRANCH   1   5
ATOM      5  O   UNL     1       1.028  -1.998  -4.649  0.00  0.00    -0.186 OA
BRANCH   5   6
ATOM      6  P   UNL     1       1.027  -2.816  -6.173  0.00  0.00    +0.486 P 
ATOM      7  O   UNL     1       1.026  -3.548  -7.538  0.00  0.00    -0.227 OA
BRANCH   6   8
ATOM      8  O   UNL     1       1.145  -1.315  -6.836  0.00  0.00    -0.302 OA
ATOM      9  H   UNL     1       2.085  -1.059  -6.877  0.00  0.00    +0.222 HD
ENDBRANCH   6   8
BRANCH   6  10
ATOM     10  O   UNL     1      -0.643  -2.922  -5.978  0.00  0.00    -0.254 OA
BRANCH  10  11
ATOM     11  C   UNL     1      -1.471  -1.893  -6.523  0.00  0.00    +0.293 C 
ATOM     12  O   UNL     1      -1.397  -1.801  -7.942  0.00  0.00    -0.340 OA
ATOM     13  C   UNL     1      -2.974  -2.048  -6.149  0.00  0.00    +0.202 C 
ATOM     14  C   UNL     1      -1.878  -2.967  -8.641  0.00  0.00    +0.178 C 
ATOM     15  C   UNL     1      -3.615  -3.243  -6.877  0.00  0.00    +0.179 C 
ATOM     16  C   UNL     1      -3.379  -3.157  -8.398  0.00  0.00    +0.177 C 
BRANCH  16  17
ATOM     17  O   UNL     1      -4.137  -2.098  -8.999  0.00  0.00    -0.386 OA
ATOM     18  H   UNL     1      -3.915  -1.260  -8.561  0.00  0.00    +0.210 HD
ENDBRANCH  16  17
BRANCH  15  19
ATOM     19  O   UNL     1      -5.020  -3.311  -6.597  0.00  0.00    -0.386 OA
ATOM     20  H   UNL     1      -5.168  -2.844  -5.753  0.00  0.00    +0.210 HD
ENDBRANCH  15  19
BRANCH  13  21
ATOM     21  O   UNL     1      -3.231  -2.144  -4.740  0.00  0.00    -0.384 OA
ATOM     22  H   UNL     1      -2.668  -2.857  -4.391  0.00  0.00    +0.210 HD
ENDBRANCH  13  21
BRANCH  14  23
ATOM     23  C   UNL     1      -1.520  -2.756 -10.113  0.00  0.00    +0.190 C 
BRANCH  23  24
ATOM     24  O   UNL     1      -0.102  -2.854 -10.300  0.00  0.00    -0.392 OA
ATOM     25  H   UNL     1       0.316  -2.840  -9.411  0.00  0.00    +0.210 HD
ENDBRANCH  23  24
ENDBRANCH  14  23
ENDBRANCH  10  11
ENDBRANCH   6  10
ENDBRANCH   5   6
ENDBRANCH   1   5
BRANCH   1  26
ATOM     26  O   UNL     1       1.784  -2.123  -2.325  0.00  0.00    -0.284 OA
BRANCH  26  27
ATOM     27  C   UNL     1       1.355  -3.366  -1.805  0.00  0.00    +0.206 C 
BRANCH  27  31
ATOM     28  C   UNL     1       1.013  -4.944   1.124  0.00  0.00    +0.255 C 
ATOM     29  O   UNL     1       0.219  -4.523  -0.006  0.00  0.00    -0.346 OA
ATOM     30  C   UNL     1       2.170  -3.944   1.282  0.00  0.00    +0.195 C 
ATOM     31  C   UNL     1       0.673  -3.216  -0.439  0.00  0.00    +0.178 C 
ATOM     32  C   UNL     1       1.569  -2.684   0.683  0.00  0.00    +0.178 C 
BRANCH  28  33
ATOM     33  N   UNL     1       1.406  -6.348   0.972  0.00  0.00    -0.271 N 
ATOM     34  C   UNL     1       2.238  -6.727  -0.075  0.00  0.00    +0.331 A 
ATOM     35  C   UNL     1       0.977  -7.268   1.906  0.00  0.00    +0.098 A 
ATOM     36  N   UNL     1       2.569  -8.056  -0.133  0.00  0.00    -0.275 N 
ATOM     37  O   UNL     1       2.703  -5.968  -0.923  0.00  0.00    -0.246 OA
ATOM     38  C   UNL     1       1.333  -8.556   1.860  0.00  0.00    +0.088 A 
ATOM     39  C   UNL     1       2.203  -9.010   0.764  0.00  0.00    +0.254 A 
ATOM     40  O   UNL     1       2.571 -10.174   0.685  0.00  0.00    -0.268 OA
ATOM     41  H   UNL     1       3.179  -8.339  -0.882  0.00  0.00    +0.173 HD
ENDBRANCH  28  33
BRANCH  32  42
ATOM     42  O   UNL     1       0.803  -2.041   1.727  0.00  0.00    -0.386 OA
ATOM     43  H   UNL     1      -0.130  -2.313   1.655  0.00  0.00    +0.210 HD
ENDBRANCH  32  42
BRANCH  30  44
ATOM     44  O   UNL     1       2.538  -3.759   2.651  0.00  0.00    -0.385 OA
ATOM     45  H   UNL     1       2.011  -2.992   2.969  0.00  0.00    +0.210 HD
ENDBRANCH  30  44
ENDBRANCH  27  31
ENDBRANCH  26  27
ENDBRANCH   1  26
TORSDOF 17
