REMARK  Name = 
REMARK  6 active torsions:
REMARK  status: ('A' for Active; 'I' for Inactive)
REMARK    1  A    between atoms: C_1  and  C_2
REMARK    2  A    between atoms: C_1  and  C_3
REMARK    3  A    between atoms: C_1  and  O_4
REMARK    4  A    between atoms: C_2  and  C_5
REMARK    5  A    between atoms: C_3  and  O_6
REMARK    6  A    between atoms: C_5  and  O_8
REMARK                            x       y       z     vdW  Elec       q    Type
REMARK                         _______ _______ _______ _____ _____    ______ ____
ROOT
ATOM      1  C   UNL     1       1.109   0.058   0.067  0.00  0.00    +0.233 C 
ENDROOT
BRANCH   1   2
ATOM      2  C   UNL     1       0.514   1.397  -0.369  0.00  0.00    +0.334 C 
ATOM      3  O   UNL     1      -0.568   1.838  -0.021  0.00  0.00    -0.248 OA
BRANCH   2   4
ATOM      4  O   UNL     1       1.355   2.067  -1.198  0.00  0.00    -0.479 OA
ATOM      5  H   UNL     1       2.163   1.538  -1.380  0.00  0.00    +0.295 HD
ENDBRANCH   2   4
ENDBRANCH   1   2
BRANCH   1   6
ATOM      6  O   UNL     1       2.550   0.159   0.053  0.00  0.00    -0.380 OA
ATOM      7  H   UNL     1       2.797   0.863   0.690  0.00  0.00    +0.211 HD
ENDBRANCH   1   6
BRANCH   1   8
ATOM      8  C   UNL     1       0.648  -0.343   1.457  0.00  0.00    +0.163 C 
BRANCH   8   9
ATOM      9  C   UNL     1       1.085  -1.734   1.840  0.00  0.00    +0.308 C 
ATOM     10  O   UNL     1       0.429  -2.455   2.580  0.00  0.00    -0.251 OA
BRANCH   9  11
ATOM     11  O   UNL     1       2.304  -2.102   1.389  0.00  0.00    -0.481 OA
ATOM     12  H   UNL     1       2.756  -1.436   0.824  0.00  0.00    +0.295 HD
ENDBRANCH   9  11
ENDBRANCH   8   9
ENDBRANCH   1   8
TORSDOF 6
