REMARK  Name = 
REMARK  7 active torsions:
REMARK  status: ('A' for Active; 'I' for Inactive)
REMARK    1  A    between atoms: C_2  and  C_3
REMARK    2  A    between atoms: C_3  and  C_4
REMARK    3  A    between atoms: C_3  and  O_6
REMARK    4  A    between atoms: C_4  and  O_5
REMARK    5  A    between atoms: O_5  and  P_7
REMARK    6  A    between atoms: P_7  and  O_8
REMARK    7  A    between atoms: P_7  and  O_10
REMARK                            x       y       z     vdW  Elec       q    Type
REMARK                         _______ _______ _______ _____ _____    ______ ____
ROOT
ATOM      1  O   UNL     1       1.255   1.118   2.481  0.00  0.00    -0.284 OA
ENDROOT
BRANCH   1   2
ATOM      2  P   UNL     1       0.836   1.010   4.156  0.00  0.00    +0.472 P 
ATOM      3  O   UNL     1       0.114  -0.318   3.944  0.00  0.00    -0.228 OA
BRANCH   2   4
ATOM      4  O   UNL     1      -0.321   2.130   3.942  0.00  0.00    -0.303 OA
ATOM      5  H   UNL     1      -1.110   1.687   3.578  0.00  0.00    +0.222 HD
ENDBRANCH   2   4
BRANCH   2   6
ATOM      6  O   UNL     1       0.418   0.901   5.831  0.00  0.00    -0.303 OA
ATOM      7  H   UNL     1      -0.350   0.297   5.843  0.00  0.00    +0.222 HD
ENDBRANCH   2   6
ENDBRANCH   1   2
BRANCH   1   8
ATOM      8  C   UNL     1       2.649   0.926   2.258  0.00  0.00    +0.211 C 
BRANCH   8   9
ATOM      9  C   UNL     1       2.959   1.033   0.764  0.00  0.00    +0.203 C 
BRANCH   9  11
ATOM     10  O   UNL     1       5.259   0.551   1.385  0.00  0.00    -0.298 OA
ATOM     11  C   UNL     1       4.432   0.778   0.505  0.00  0.00    +0.256 C 
ENDBRANCH   9  11
BRANCH   9  12
ATOM     12  O   UNL     1       2.640   2.324   0.241  0.00  0.00    -0.382 OA
ATOM     13  H   UNL     1       2.890   2.992   0.906  0.00  0.00    +0.210 HD
ENDBRANCH   9  12
ENDBRANCH   8   9
ENDBRANCH   1   8
TORSDOF 7
