MODEL 1
REMARK VINA RESULT:    -8.496      0.000      0.000
REMARK INTER + INTRA:         -12.441
REMARK INTER:                 -11.724
REMARK INTRA:                  -0.717
REMARK UNBOUND:                -0.717
REMARK  Name = 107971
REMARK  9 active torsions:
REMARK  status: ('A' for Active; 'I' for Inactive)
REMARK    1  A    between atoms: O_2  and  C_14
REMARK    2  A    between atoms: O_2  and  C_16
REMARK    3  A    between atoms: O_3  and  C_10
REMARK    4  A    between atoms: O_4  and  C_11
REMARK    5  A    between atoms: O_5  and  C_12
REMARK    6  A    between atoms: O_6  and  C_15
REMARK    7  A    between atoms: O_9  and  C_30
REMARK    8  A    between atoms: C_13  and  C_15
REMARK    9  A    between atoms: C_23  and  C_25
REMARK                            x       y       z     vdW  Elec       q    Type
REMARK                         _______ _______ _______ _____ _____    ______ ____
ROOT
ATOM      1  O   UNL     1      18.231  -1.572  33.480  0.00  0.00    +0.000 OA
ATOM      2  O   UNL     1      17.546  -0.949  29.508  0.00  0.00    +0.000 OA
ATOM      3  C   UNL     1      15.981  -4.379  32.800  0.00  0.00    +0.000 A 
ATOM      4  C   UNL     1      16.835  -3.492  33.470  0.00  0.00    +0.000 A 
ATOM      5  C   UNL     1      15.643  -4.138  31.465  0.00  0.00    +0.000 A 
ATOM      6  C   UNL     1      17.393  -2.409  32.784  0.00  0.00    +0.000 A 
ATOM      7  C   UNL     1      17.097  -2.212  31.437  0.00  0.00    +0.000 A 
ATOM      8  C   UNL     1      16.211  -3.067  30.778  0.00  0.00    +0.000 A 
ATOM      9  C   UNL     1      17.731  -1.101  30.707  0.00  0.00    +0.000 A 
ATOM     10  C   UNL     1      18.609  -0.210  31.505  0.00  0.00    +0.000 A 
ATOM     11  C   UNL     1      18.781  -0.506  32.803  0.00  0.00    +0.000 A 
ENDROOT
BRANCH  10  12
ATOM     12  C   UNL     1      19.277   0.947  30.898  0.00  0.00    +0.000 A 
ATOM     13  C   UNL     1      18.657   2.205  30.905  0.00  0.00    +0.000 A 
ATOM     14  C   UNL     1      20.541   0.808  30.310  0.00  0.00    +0.000 A 
ATOM     15  C   UNL     1      19.292   3.310  30.329  0.00  0.00    +0.000 A 
ATOM     16  C   UNL     1      21.173   1.912  29.734  0.00  0.00    +0.000 A 
ATOM     17  C   UNL     1      20.544   3.152  29.746  0.00  0.00    +0.000 A 
BRANCH  17  18
ATOM     18  O   UNL     1      21.198   4.201  29.171  0.00  0.00    +0.000 OA
ATOM     19  H   UNL     1      21.274   4.915  29.823  0.00  0.00    +0.000 HD
ENDBRANCH  17  18
ENDBRANCH  10  12
BRANCH   3  20
ATOM     20  O   UNL     1      15.512  -5.442  33.529  0.00  0.00    +0.000 OA
BRANCH  20  26
ATOM     21  O   UNL     1      16.981  -6.245  35.192  0.00  0.00    +0.000 OA
ATOM     22  C   UNL     1      14.993  -5.935  37.238  0.00  0.00    +0.000 C 
ATOM     23  C   UNL     1      16.291  -6.724  37.481  0.00  0.00    +0.000 C 
ATOM     24  C   UNL     1      14.623  -5.915  35.742  0.00  0.00    +0.000 C 
ATOM     25  C   UNL     1      17.395  -6.186  36.566  0.00  0.00    +0.000 C 
ATOM     26  C   UNL     1      15.841  -5.415  34.929  0.00  0.00    +0.000 C 
BRANCH  22  27
ATOM     27  O   UNL     1      13.933  -6.467  38.038  0.00  0.00    +0.000 OA
ATOM     28  H   UNL     1      14.075  -6.194  38.962  0.00  0.00    +0.000 HD
ENDBRANCH  22  27
BRANCH  23  29
ATOM     29  O   UNL     1      16.703  -6.652  38.848  0.00  0.00    +0.000 OA
ATOM     30  H   UNL     1      16.399  -7.450  39.316  0.00  0.00    +0.000 HD
ENDBRANCH  23  29
BRANCH  24  31
ATOM     31  O   UNL     1      13.466  -5.092  35.530  0.00  0.00    +0.000 OA
ATOM     32  H   UNL     1      12.866  -5.539  34.911  0.00  0.00    +0.000 HD
ENDBRANCH  24  31
BRANCH  25  33
ATOM     33  C   UNL     1      18.687  -6.997  36.716  0.00  0.00    +0.000 C 
BRANCH  33  34
ATOM     34  O   UNL     1      19.397  -6.989  35.475  0.00  0.00    +0.000 OA
ATOM     35  H   UNL     1      19.584  -7.924  35.272  0.00  0.00    +0.000 HD
ENDBRANCH  33  34
ENDBRANCH  25  33
ENDBRANCH  20  26
ENDBRANCH   3  20
TORSDOF 9
ENDMDL
MODEL 2
REMARK VINA RESULT:    -8.493      3.785      6.111
REMARK INTER + INTRA:         -12.437
REMARK INTER:                 -11.531
REMARK INTRA:                  -0.906
REMARK UNBOUND:                -0.717
REMARK  Name = 107971
REMARK  9 active torsions:
REMARK  status: ('A' for Active; 'I' for Inactive)
REMARK    1  A    between atoms: O_2  and  C_14
REMARK    2  A    between atoms: O_2  and  C_16
REMARK    3  A    between atoms: O_3  and  C_10
REMARK    4  A    between atoms: O_4  and  C_11
REMARK    5  A    between atoms: O_5  and  C_12
REMARK    6  A    between atoms: O_6  and  C_15
REMARK    7  A    between atoms: O_9  and  C_30
REMARK    8  A    between atoms: C_13  and  C_15
REMARK    9  A    between atoms: C_23  and  C_25
REMARK                            x       y       z     vdW  Elec       q    Type
REMARK                         _______ _______ _______ _____ _____    ______ ____
ROOT
ATOM      1  O   UNL     1      20.149   1.600  34.599  0.00  0.00    +0.000 OA
ATOM      2  O   UNL     1      21.895   4.014  31.814  0.00  0.00    +0.000 OA
ATOM      3  C   UNL     1      19.704  -0.482  31.620  0.00  0.00    +0.000 A 
ATOM      4  C   UNL     1      19.672  -0.040  32.949  0.00  0.00    +0.000 A 
ATOM      5  C   UNL     1      20.204   0.362  30.623  0.00  0.00    +0.000 A 
ATOM      6  C   UNL     1      20.195   1.214  33.281  0.00  0.00    +0.000 A 
ATOM      7  C   UNL     1      20.744   2.022  32.289  0.00  0.00    +0.000 A 
ATOM      8  C   UNL     1      20.738   1.605  30.956  0.00  0.00    +0.000 A 
ATOM      9  C   UNL     1      21.342   3.318  32.653  0.00  0.00    +0.000 A 
ATOM     10  C   UNL     1      21.248   3.704  34.082  0.00  0.00    +0.000 A 
ATOM     11  C   UNL     1      20.665   2.835  34.923  0.00  0.00    +0.000 A 
ENDROOT
BRANCH  10  12
ATOM     12  C   UNL     1      21.781   4.982  34.565  0.00  0.00    +0.000 A 
ATOM     13  C   UNL     1      20.957   6.115  34.626  0.00  0.00    +0.000 A 
ATOM     14  C   UNL     1      23.118   5.083  34.974  0.00  0.00    +0.000 A 
ATOM     15  C   UNL     1      21.462   7.335  35.088  0.00  0.00    +0.000 A 
ATOM     16  C   UNL     1      23.622   6.302  35.433  0.00  0.00    +0.000 A 
ATOM     17  C   UNL     1      22.793   7.417  35.485  0.00  0.00    +0.000 A 
BRANCH  17  18
ATOM     18  O   UNL     1      23.328   8.586  35.938  0.00  0.00    +0.000 OA
ATOM     19  H   UNL     1      24.227   8.675  35.584  0.00  0.00    +0.000 HD
ENDBRANCH  17  18
ENDBRANCH  10  12
BRANCH   3  20
ATOM     20  O   UNL     1      19.216  -1.742  31.384  0.00  0.00    +0.000 OA
BRANCH  20  26
ATOM     21  O   UNL     1      17.897  -3.231  32.652  0.00  0.00    +0.000 OA
ATOM     22  C   UNL     1      15.497  -2.398  31.317  0.00  0.00    +0.000 C 
ATOM     23  C   UNL     1      15.536  -3.651  32.207  0.00  0.00    +0.000 C 
ATOM     24  C   UNL     1      16.893  -2.071  30.750  0.00  0.00    +0.000 C 
ATOM     25  C   UNL     1      16.626  -3.489  33.270  0.00  0.00    +0.000 C 
ATOM     26  C   UNL     1      17.906  -1.999  31.917  0.00  0.00    +0.000 C 
BRANCH  22  27
ATOM     27  O   UNL     1      14.528  -2.558  30.277  0.00  0.00    +0.000 OA
ATOM     28  H   UNL     1      14.728  -1.923  29.565  0.00  0.00    +0.000 HD
ENDBRANCH  22  27
BRANCH  23  29
ATOM     29  O   UNL     1      14.272  -3.896  32.827  0.00  0.00    +0.000 OA
ATOM     30  H   UNL     1      13.560  -3.672  32.203  0.00  0.00    +0.000 HD
ENDBRANCH  23  29
BRANCH  24  31
ATOM     31  O   UNL     1      16.849  -0.844  30.005  0.00  0.00    +0.000 OA
ATOM     32  H   UNL     1      16.011  -0.388  30.191  0.00  0.00    +0.000 HD
ENDBRANCH  24  31
BRANCH  25  33
ATOM     33  C   UNL     1      16.756  -4.750  34.132  0.00  0.00    +0.000 C 
BRANCH  33  34
ATOM     34  O   UNL     1      16.068  -5.830  33.497  0.00  0.00    +0.000 OA
ATOM     35  H   UNL     1      15.119  -5.626  33.584  0.00  0.00    +0.000 HD
ENDBRANCH  33  34
ENDBRANCH  25  33
ENDBRANCH  20  26
ENDBRANCH   3  20
TORSDOF 9
ENDMDL
MODEL 3
REMARK VINA RESULT:    -8.340      2.204      9.444
REMARK INTER + INTRA:         -12.226
REMARK INTER:                 -11.460
REMARK INTRA:                  -0.766
REMARK UNBOUND:                -0.717
REMARK  Name = 107971
REMARK  9 active torsions:
REMARK  status: ('A' for Active; 'I' for Inactive)
REMARK    1  A    between atoms: O_2  and  C_14
REMARK    2  A    between atoms: O_2  and  C_16
REMARK    3  A    between atoms: O_3  and  C_10
REMARK    4  A    between atoms: O_4  and  C_11
REMARK    5  A    between atoms: O_5  and  C_12
REMARK    6  A    between atoms: O_6  and  C_15
REMARK    7  A    between atoms: O_9  and  C_30
REMARK    8  A    between atoms: C_13  and  C_15
REMARK    9  A    between atoms: C_23  and  C_25
REMARK                            x       y       z     vdW  Elec       q    Type
REMARK                         _______ _______ _______ _____ _____    ______ ____
ROOT
ATOM      1  O   UNL     1      17.707  -2.814  34.771  0.00  0.00    +0.000 OA
ATOM      2  O   UNL     1      15.327  -4.914  32.210  0.00  0.00    +0.000 OA
ATOM      3  C   UNL     1      17.706  -0.520  31.917  0.00  0.00    +0.000 A 
ATOM      4  C   UNL     1      17.961  -1.069  33.180  0.00  0.00    +0.000 A 
ATOM      5  C   UNL     1      16.979  -1.258  30.977  0.00  0.00    +0.000 A 
ATOM      6  C   UNL     1      17.437  -2.321  33.517  0.00  0.00    +0.000 A 
ATOM      7  C   UNL     1      16.664  -3.021  32.594  0.00  0.00    +0.000 A 
ATOM      8  C   UNL     1      16.444  -2.498  31.317  0.00  0.00    +0.000 A 
ATOM      9  C   UNL     1      16.069  -4.313  32.974  0.00  0.00    +0.000 A 
ATOM     10  C   UNL     1      16.407  -4.817  34.328  0.00  0.00    +0.000 A 
ATOM     11  C   UNL     1      17.189  -4.047  35.100  0.00  0.00    +0.000 A 
ENDROOT
BRANCH  10  12
ATOM     12  C   UNL     1      15.899  -6.105  34.812  0.00  0.00    +0.000 A 
ATOM     13  C   UNL     1      14.707  -6.164  35.548  0.00  0.00    +0.000 A 
ATOM     14  C   UNL     1      16.596  -7.289  34.541  0.00  0.00    +0.000 A 
ATOM     15  C   UNL     1      14.218  -7.391  36.010  0.00  0.00    +0.000 A 
ATOM     16  C   UNL     1      16.109  -8.514  35.004  0.00  0.00    +0.000 A 
ATOM     17  C   UNL     1      14.927  -8.555  35.735  0.00  0.00    +0.000 A 
BRANCH  17  18
ATOM     18  O   UNL     1      14.490  -9.772  36.168  0.00  0.00    +0.000 OA
ATOM     19  H   UNL     1      13.580  -9.678  36.491  0.00  0.00    +0.000 HD
ENDBRANCH  17  18
ENDBRANCH  10  12
BRANCH   3  20
ATOM     20  O   UNL     1      18.215   0.732  31.681  0.00  0.00    +0.000 OA
BRANCH  20  26
ATOM     21  O   UNL     1      20.360   1.378  32.420  0.00  0.00    +0.000 OA
ATOM     22  C   UNL     1      21.311   1.660  29.727  0.00  0.00    +0.000 C 
ATOM     23  C   UNL     1      22.109   2.195  30.929  0.00  0.00    +0.000 C 
ATOM     24  C   UNL     1      19.806   1.575  30.048  0.00  0.00    +0.000 C 
ATOM     25  C   UNL     1      21.775   1.365  32.172  0.00  0.00    +0.000 C 
ATOM     26  C   UNL     1      19.615   0.770  31.355  0.00  0.00    +0.000 C 
BRANCH  22  27
ATOM     27  O   UNL     1      21.561   2.463  28.570  0.00  0.00    +0.000 OA
ATOM     28  H   UNL     1      22.135   1.962  27.962  0.00  0.00    +0.000 HD
ENDBRANCH  22  27
BRANCH  23  29
ATOM     29  O   UNL     1      23.516   2.170  30.681  0.00  0.00    +0.000 OA
ATOM     30  H   UNL     1      23.966   1.742  31.431  0.00  0.00    +0.000 HD
ENDBRANCH  23  29
BRANCH  24  31
ATOM     31  O   UNL     1      19.099   0.981  28.948  0.00  0.00    +0.000 OA
ATOM     32  H   UNL     1      19.065   1.615  28.213  0.00  0.00    +0.000 HD
ENDBRANCH  24  31
BRANCH  25  33
ATOM     33  C   UNL     1      22.486   1.914  33.415  0.00  0.00    +0.000 C 
BRANCH  33  34
ATOM     34  O   UNL     1      22.386   0.962  34.476  0.00  0.00    +0.000 OA
ATOM     35  H   UNL     1      22.550   1.463  35.297  0.00  0.00    +0.000 HD
ENDBRANCH  33  34
ENDBRANCH  25  33
ENDBRANCH  20  26
ENDBRANCH   3  20
TORSDOF 9
ENDMDL
MODEL 4
REMARK VINA RESULT:    -8.307      1.911      2.676
REMARK INTER + INTRA:         -12.180
REMARK INTER:                 -11.443
REMARK INTRA:                  -0.738
REMARK UNBOUND:                -0.717
REMARK  Name = 107971
REMARK  9 active torsions:
REMARK  status: ('A' for Active; 'I' for Inactive)
REMARK    1  A    between atoms: O_2  and  C_14
REMARK    2  A    between atoms: O_2  and  C_16
REMARK    3  A    between atoms: O_3  and  C_10
REMARK    4  A    between atoms: O_4  and  C_11
REMARK    5  A    between atoms: O_5  and  C_12
REMARK    6  A    between atoms: O_6  and  C_15
REMARK    7  A    between atoms: O_9  and  C_30
REMARK    8  A    between atoms: C_13  and  C_15
REMARK    9  A    between atoms: C_23  and  C_25
REMARK                            x       y       z     vdW  Elec       q    Type
REMARK                         _______ _______ _______ _____ _____    ______ ____
ROOT
ATOM      1  O   UNL     1      20.007  -0.077  32.472  0.00  0.00    +0.000 OA
ATOM      2  O   UNL     1      19.612   0.256  28.426  0.00  0.00    +0.000 OA
ATOM      3  C   UNL     1      17.845  -2.961  31.828  0.00  0.00    +0.000 A 
ATOM      4  C   UNL     1      18.637  -2.017  32.494  0.00  0.00    +0.000 A 
ATOM      5  C   UNL     1      17.605  -2.820  30.458  0.00  0.00    +0.000 A 
ATOM      6  C   UNL     1      19.232  -0.974  31.776  0.00  0.00    +0.000 A 
ATOM      7  C   UNL     1      19.035  -0.877  30.401  0.00  0.00    +0.000 A 
ATOM      8  C   UNL     1      18.211  -1.790  29.740  0.00  0.00    +0.000 A 
ATOM      9  C   UNL     1      19.710   0.191  29.643  0.00  0.00    +0.000 A 
ATOM     10  C   UNL     1      20.516   1.150  30.438  0.00  0.00    +0.000 A 
ATOM     11  C   UNL     1      20.593   0.948  31.762  0.00  0.00    +0.000 A 
ENDROOT
BRANCH  10  12
ATOM     12  C   UNL     1      21.213   2.272  29.802  0.00  0.00    +0.000 A 
ATOM     13  C   UNL     1      22.361   2.046  29.029  0.00  0.00    +0.000 A 
ATOM     14  C   UNL     1      20.737   3.581  29.955  0.00  0.00    +0.000 A 
ATOM     15  C   UNL     1      23.027   3.114  28.420  0.00  0.00    +0.000 A 
ATOM     16  C   UNL     1      21.403   4.647  29.348  0.00  0.00    +0.000 A 
ATOM     17  C   UNL     1      22.542   4.407  28.588  0.00  0.00    +0.000 A 
BRANCH  17  18
ATOM     18  O   UNL     1      23.161   5.478  28.015  0.00  0.00    +0.000 OA
ATOM     19  H   UNL     1      23.687   5.166  27.260  0.00  0.00    +0.000 HD
ENDBRANCH  17  18
ENDBRANCH  10  12
BRANCH   3  20
ATOM     20  O   UNL     1      17.336  -3.979  32.594  0.00  0.00    +0.000 OA
BRANCH  20  26
ATOM     21  O   UNL     1      18.183  -4.919  34.584  0.00  0.00    +0.000 OA
ATOM     22  C   UNL     1      16.231  -3.550  36.180  0.00  0.00    +0.000 C 
ATOM     23  C   UNL     1      17.096  -4.684  36.755  0.00  0.00    +0.000 C 
ATOM     24  C   UNL     1      16.077  -3.683  34.652  0.00  0.00    +0.000 C 
ATOM     25  C   UNL     1      18.422  -4.752  35.991  0.00  0.00    +0.000 C 
ATOM     26  C   UNL     1      17.481  -3.806  34.014  0.00  0.00    +0.000 C 
BRANCH  22  27
ATOM     27  O   UNL     1      14.962  -3.513  36.839  0.00  0.00    +0.000 OA
ATOM     28  H   UNL     1      14.858  -4.330  37.359  0.00  0.00    +0.000 HD
ENDBRANCH  22  27
BRANCH  23  29
ATOM     29  O   UNL     1      17.339  -4.506  38.151  0.00  0.00    +0.000 OA
ATOM     30  H   UNL     1      18.012  -5.146  38.444  0.00  0.00    +0.000 HD
ENDBRANCH  23  29
BRANCH  24  31
ATOM     31  O   UNL     1      15.350  -2.560  34.129  0.00  0.00    +0.000 OA
ATOM     32  H   UNL     1      14.769  -2.863  33.413  0.00  0.00    +0.000 HD
ENDBRANCH  24  31
BRANCH  25  33
ATOM     33  C   UNL     1      19.285  -5.922  36.476  0.00  0.00    +0.000 C 
BRANCH  33  34
ATOM     34  O   UNL     1      19.320  -6.934  35.468  0.00  0.00    +0.000 OA
ATOM     35  H   UNL     1      20.264  -7.136  35.328  0.00  0.00    +0.000 HD
ENDBRANCH  33  34
ENDBRANCH  25  33
ENDBRANCH  20  26
ENDBRANCH   3  20
TORSDOF 9
ENDMDL
MODEL 5
REMARK VINA RESULT:    -8.156      4.861     10.218
REMARK INTER + INTRA:         -11.972
REMARK INTER:                 -11.507
REMARK INTRA:                  -0.465
REMARK UNBOUND:                -0.717
REMARK  Name = 107971
REMARK  9 active torsions:
REMARK  status: ('A' for Active; 'I' for Inactive)
REMARK    1  A    between atoms: O_2  and  C_14
REMARK    2  A    between atoms: O_2  and  C_16
REMARK    3  A    between atoms: O_3  and  C_10
REMARK    4  A    between atoms: O_4  and  C_11
REMARK    5  A    between atoms: O_5  and  C_12
REMARK    6  A    between atoms: O_6  and  C_15
REMARK    7  A    between atoms: O_9  and  C_30
REMARK    8  A    between atoms: C_13  and  C_15
REMARK    9  A    between atoms: C_23  and  C_25
REMARK                            x       y       z     vdW  Elec       q    Type
REMARK                         _______ _______ _______ _____ _____    ______ ____
ROOT
ATOM      1  O   UNL     1      20.198   0.983  33.772  0.00  0.00    +0.000 OA
ATOM      2  O   UNL     1      19.901   0.535  29.728  0.00  0.00    +0.000 OA
ATOM      3  C   UNL     1      22.426   3.680  32.692  0.00  0.00    +0.000 A 
ATOM      4  C   UNL     1      21.688   2.812  33.508  0.00  0.00    +0.000 A 
ATOM      5  C   UNL     1      22.428   3.492  31.307  0.00  0.00    +0.000 A 
ATOM      6  C   UNL     1      20.911   1.803  32.930  0.00  0.00    +0.000 A 
ATOM      7  C   UNL     1      20.873   1.662  31.546  0.00  0.00    +0.000 A 
ATOM      8  C   UNL     1      21.641   2.496  30.731  0.00  0.00    +0.000 A 
ATOM      9  C   UNL     1      20.009   0.633  30.943  0.00  0.00    +0.000 A 
ATOM     10  C   UNL     1      19.277  -0.245  31.888  0.00  0.00    +0.000 A 
ATOM     11  C   UNL     1      19.432  -0.009  33.201  0.00  0.00    +0.000 A 
ENDROOT
BRANCH  10  12
ATOM     12  C   UNL     1      18.406  -1.324  31.410  0.00  0.00    +0.000 A 
ATOM     13  C   UNL     1      18.921  -2.338  30.590  0.00  0.00    +0.000 A 
ATOM     14  C   UNL     1      17.054  -1.356  31.773  0.00  0.00    +0.000 A 
ATOM     15  C   UNL     1      18.094  -3.369  30.134  0.00  0.00    +0.000 A 
ATOM     16  C   UNL     1      16.228  -2.386  31.317  0.00  0.00    +0.000 A 
ATOM     17  C   UNL     1      16.753  -3.382  30.501  0.00  0.00    +0.000 A 
BRANCH  17  18
ATOM     18  O   UNL     1      15.910  -4.366  30.078  0.00  0.00    +0.000 OA
ATOM     19  H   UNL     1      15.453  -4.061  29.277  0.00  0.00    +0.000 HD
ENDBRANCH  17  18
ENDBRANCH  10  12
BRANCH   3  20
ATOM     20  O   UNL     1      23.125   4.672  33.332  0.00  0.00    +0.000 OA
BRANCH  20  26
ATOM     21  O   UNL     1      21.362   5.514  34.653  0.00  0.00    +0.000 OA
ATOM     22  C   UNL     1      23.170   6.320  36.730  0.00  0.00    +0.000 C 
ATOM     23  C   UNL     1      21.704   6.787  36.704  0.00  0.00    +0.000 C 
ATOM     24  C   UNL     1      23.669   5.968  35.315  0.00  0.00    +0.000 C 
ATOM     25  C   UNL     1      20.850   5.746  35.975  0.00  0.00    +0.000 C 
ATOM     26  C   UNL     1      22.686   4.963  34.669  0.00  0.00    +0.000 C 
BRANCH  22  27
ATOM     27  O   UNL     1      23.994   7.311  37.351  0.00  0.00    +0.000 OA
ATOM     28  H   UNL     1      23.422   8.023  37.689  0.00  0.00    +0.000 HD
ENDBRANCH  22  27
BRANCH  23  29
ATOM     29  O   UNL     1      21.198   7.006  38.022  0.00  0.00    +0.000 OA
ATOM     30  H   UNL     1      21.391   7.921  38.292  0.00  0.00    +0.000 HD
ENDBRANCH  23  29
BRANCH  24  31
ATOM     31  O   UNL     1      25.004   5.443  35.379  0.00  0.00    +0.000 OA
ATOM     32  H   UNL     1      25.577   6.083  35.832  0.00  0.00    +0.000 HD
ENDBRANCH  24  31
BRANCH  25  33
ATOM     33  C   UNL     1      19.393   6.207  35.853  0.00  0.00    +0.000 C 
BRANCH  33  34
ATOM     34  O   UNL     1      19.356   7.631  35.727  0.00  0.00    +0.000 OA
ATOM     35  H   UNL     1      18.627   7.822  35.110  0.00  0.00    +0.000 HD
ENDBRANCH  33  34
ENDBRANCH  25  33
ENDBRANCH  20  26
ENDBRANCH   3  20
TORSDOF 9
ENDMDL
