REMARK  Name = 107971
REMARK  9 active torsions:
REMARK  status: ('A' for Active; 'I' for Inactive)
REMARK    1  A    between atoms: O_2  and  C_14
REMARK    2  A    between atoms: O_2  and  C_16
REMARK    3  A    between atoms: O_3  and  C_10
REMARK    4  A    between atoms: O_4  and  C_11
REMARK    5  A    between atoms: O_5  and  C_12
REMARK    6  A    between atoms: O_6  and  C_15
REMARK    7  A    between atoms: O_9  and  C_30
REMARK    8  A    between atoms: C_13  and  C_15
REMARK    9  A    between atoms: C_23  and  C_25
REMARK                            x       y       z     vdW  Elec       q    Type
REMARK                         _______ _______ _______ _____ _____    ______ ____
ROOT
ATOM      1  O   UNL     1       2.602   4.728   4.350  0.00  0.00    +0.000 OA
ATOM      2  O   UNL     1       3.202   1.429   6.672  0.00  0.00    +0.000 OA
ATOM      3  C   UNL     1       2.499   2.135   1.767  0.00  0.00    +0.000 A 
ATOM      4  C   UNL     1       2.458   3.386   2.396  0.00  0.00    +0.000 A 
ATOM      5  C   UNL     1       2.803   0.994   2.516  0.00  0.00    +0.000 A 
ATOM      6  C   UNL     1       2.660   3.480   3.777  0.00  0.00    +0.000 A 
ATOM      7  C   UNL     1       2.903   2.330   4.523  0.00  0.00    +0.000 A 
ATOM      8  C   UNL     1       2.989   1.086   3.894  0.00  0.00    +0.000 A 
ATOM      9  C   UNL     1       3.060   2.430   5.984  0.00  0.00    +0.000 A 
ATOM     10  C   UNL     1       3.014   3.798   6.556  0.00  0.00    +0.000 A 
ATOM     11  C   UNL     1       2.800   4.818   5.710  0.00  0.00    +0.000 A 
ENDROOT
BRANCH  10  12
ATOM     12  C   UNL     1       3.185   4.031   7.994  0.00  0.00    +0.000 A 
ATOM     13  C   UNL     1       2.073   4.031   8.848  0.00  0.00    +0.000 A 
ATOM     14  C   UNL     1       4.461   4.251   8.529  0.00  0.00    +0.000 A 
ATOM     15  C   UNL     1       2.233   4.251  10.220  0.00  0.00    +0.000 A 
ATOM     16  C   UNL     1       4.620   4.472   9.899  0.00  0.00    +0.000 A 
ATOM     17  C   UNL     1       3.507   4.472  10.732  0.00  0.00    +0.000 A 
BRANCH  17  18
ATOM     18  O   UNL     1       3.709   4.694  12.062  0.00  0.00    +0.000 OA
ATOM     19  H   UNL     1       2.855   4.638  12.520  0.00  0.00    +0.000 HD
ENDBRANCH  17  18
ENDBRANCH  10  12
BRANCH   3  20
ATOM     20  O   UNL     1       2.244   2.121   0.419  0.00  0.00    +0.000 OA
BRANCH  20  26
ATOM     21  O   UNL     1       2.648  -0.035  -0.449  0.00  0.00    +0.000 OA
ATOM     22  C   UNL     1       0.149  -0.044  -1.859  0.00  0.00    +0.000 C 
ATOM     23  C   UNL     1       1.238  -1.095  -2.133  0.00  0.00    +0.000 C 
ATOM     24  C   UNL     1       0.756   1.257  -1.298  0.00  0.00    +0.000 C 
ATOM     25  C   UNL     1       2.089  -1.288  -0.874  0.00  0.00    +0.000 C 
ATOM     26  C   UNL     1       1.639   0.914  -0.075  0.00  0.00    +0.000 C 
BRANCH  22  27
ATOM     27  O   UNL     1      -0.616   0.197  -3.044  0.00  0.00    +0.000 OA
ATOM     28  H   UNL     1      -0.048   0.650  -3.693  0.00  0.00    +0.000 HD
ENDBRANCH  22  27
BRANCH  23  29
ATOM     29  O   UNL     1       0.675  -2.342  -2.545  0.00  0.00    +0.000 OA
ATOM     30  H   UNL     1      -0.209  -2.441  -2.149  0.00  0.00    +0.000 HD
ENDBRANCH  23  29
BRANCH  24  31
ATOM     31  O   UNL     1      -0.288   2.183  -0.959  0.00  0.00    +0.000 OA
ATOM     32  H   UNL     1      -0.908   1.754  -0.347  0.00  0.00    +0.000 HD
ENDBRANCH  24  31
BRANCH  25  33
ATOM     33  C   UNL     1       3.240  -2.269  -1.125  0.00  0.00    +0.000 C 
BRANCH  33  34
ATOM     34  O   UNL     1       3.990  -2.437   0.080  0.00  0.00    +0.000 OA
ATOM     35  H   UNL     1       4.312  -1.548   0.317  0.00  0.00    +0.000 HD
ENDBRANCH  33  34
ENDBRANCH  25  33
ENDBRANCH  20  26
ENDBRANCH   3  20
TORSDOF 9
