REMARK  Name = 
REMARK  9 active torsions:
REMARK  status: ('A' for Active; 'I' for Inactive)
REMARK    1  A    between atoms: P_1  and  O_2
REMARK    2  A    between atoms: P_1  and  O_3
REMARK    3  A    between atoms: P_1  and  O_4
REMARK    4  A    between atoms: O_2  and  C_6
REMARK    5  A    between atoms: C_6  and  C_7
REMARK    6  A    between atoms: C_8  and  O_11
REMARK    7  A    between atoms: C_10  and  O_14
REMARK    8  A    between atoms: C_12  and  O_15
REMARK    9  A    between atoms: C_13  and  O_16
REMARK                            x       y       z     vdW  Elec       q    Type
REMARK                         _______ _______ _______ _____ _____    ______ ____
ROOT
ATOM      1  C   UNL     1       1.001  -1.879   3.555  0.00  0.00    +0.179 C 
ATOM      2  C   UNL     1       1.986  -2.933   4.102  0.00  0.00    +0.177 C 
ATOM      3  O   UNL     1      -0.335  -2.235   3.945  0.00  0.00    -0.341 OA
ATOM      4  C   UNL     1       1.631  -4.342   3.585  0.00  0.00    +0.179 C 
ATOM      5  C   UNL     1      -0.767  -3.505   3.467  0.00  0.00    +0.279 C 
ATOM      6  C   UNL     1       0.162  -4.659   3.909  0.00  0.00    +0.201 C 
ENDROOT
BRANCH   2   7
ATOM      7  O   UNL     1       1.906  -2.967   5.544  0.00  0.00    -0.386 OA
ATOM      8  H   UNL     1       1.737  -2.054   5.854  0.00  0.00    +0.210 HD
ENDBRANCH   2   7
BRANCH   4   9
ATOM      9  O   UNL     1       1.894  -4.441   2.185  0.00  0.00    -0.386 OA
ATOM     10  H   UNL     1       1.459  -5.241   1.840  0.00  0.00    +0.210 HD
ENDBRANCH   4   9
BRANCH   5  11
ATOM     11  O   UNL     1      -2.072  -3.743   3.988  0.00  0.00    -0.365 OA
ATOM     12  H   UNL     1      -1.910  -4.131   4.875  0.00  0.00    +0.213 HD
ENDBRANCH   5  11
BRANCH   6  13
ATOM     13  O   UNL     1      -0.010  -4.891   5.320  0.00  0.00    -0.384 OA
ATOM     14  H   UNL     1       0.533  -4.213   5.781  0.00  0.00    +0.210 HD
ENDBRANCH   6  13
BRANCH   1  15
ATOM     15  C   UNL     1       1.163  -1.647   2.049  0.00  0.00    +0.206 C 
BRANCH  15  16
ATOM     16  O   UNL     1       0.249  -0.661   1.599  0.00  0.00    -0.284 OA
BRANCH  16  17
ATOM     17  P   UNL     1       0.303  -0.450  -0.038  0.00  0.00    +0.472 P 
ATOM     18  O   UNL     1       1.518   0.509  -0.018  0.00  0.00    -0.228 OA
BRANCH  17  19
ATOM     19  O   UNL     1      -0.835   0.716  -0.171  0.00  0.00    -0.303 OA
ATOM     20  H   UNL     1      -0.904   1.034  -1.084  0.00  0.00    +0.222 HD
ENDBRANCH  17  19
BRANCH  17  21
ATOM     21  O   UNL     1      -1.054  -1.523  -0.061  0.00  0.00    -0.303 OA
ATOM     22  H   UNL     1      -1.611  -1.189   0.675  0.00  0.00    +0.222 HD
ENDBRANCH  17  21
ENDBRANCH  16  17
ENDBRANCH  15  16
ENDBRANCH   1  15
TORSDOF 9
