REMARK  Name = 
REMARK  15 active torsions:
REMARK  status: ('A' for Active; 'I' for Inactive)
REMARK    1  A    between atoms: C_1  and  N_2
REMARK    2  A    between atoms: C_4  and  O_9
REMARK    3  A    between atoms: C_7  and  C_13
REMARK    4  A    between atoms: C_8  and  O_14
REMARK    5  A    between atoms: C_13  and  O_16
REMARK    6  A    between atoms: O_16  and  P_18
REMARK    7  A    between atoms: P_18  and  O_19
REMARK    8  A    between atoms: P_18  and  O_20
REMARK    9  A    between atoms: O_19  and  P_22
REMARK   10  A    between atoms: P_22  and  O_23
REMARK   11  A    between atoms: P_22  and  O_24
REMARK   12  A    between atoms: O_23  and  C_26
REMARK   13  A    between atoms: C_27  and  O_30
REMARK   14  A    between atoms: C_29  and  O_33
REMARK   15  A    between atoms: C_32  and  O_34
REMARK                            x       y       z     vdW  Elec       q    Type
REMARK                         _______ _______ _______ _____ _____    ______ ____
ROOT
ATOM      1  P   UNL     1       2.555  -2.232  -3.870  0.00  0.00    +0.483 P 
ATOM      2  O   UNL     1       3.245  -2.331  -5.252  0.00  0.00    -0.227 OA
ENDROOT
BRANCH   1   3
ATOM      3  O   UNL     1       2.529  -3.851  -3.603  0.00  0.00    -0.302 OA
ATOM      4  H   UNL     1       1.714  -4.270  -3.932  0.00  0.00    +0.222 HD
ENDBRANCH   1   3
BRANCH   1   5
ATOM      5  O   UNL     1       1.784  -2.123  -2.325  0.00  0.00    -0.284 OA
BRANCH   5   6
ATOM      6  C   UNL     1       1.537  -0.810  -1.832  0.00  0.00    +0.206 C 
BRANCH   6  10
ATOM      7  C   UNL     1       0.096   1.180   0.325  0.00  0.00    +0.255 C 
ATOM      8  O   UNL     1       1.313   0.401   0.276  0.00  0.00    -0.346 OA
ATOM      9  C   UNL     1      -0.982   0.400  -0.448  0.00  0.00    +0.195 C 
ATOM     10  C   UNL     1       1.026  -0.861  -0.376  0.00  0.00    +0.178 C 
ATOM     11  C   UNL     1      -0.489  -1.031  -0.278  0.00  0.00    +0.178 C 
BRANCH   7  12
ATOM     12  N   UNL     1       0.352   2.550  -0.145  0.00  0.00    -0.271 N 
ATOM     13  C   UNL     1       0.810   2.769  -1.437  0.00  0.00    +0.331 A 
ATOM     14  C   UNL     1       0.063   3.608   0.710  0.00  0.00    +0.098 A 
ATOM     15  N   UNL     1       1.001   4.076  -1.784  0.00  0.00    -0.275 N 
ATOM     16  O   UNL     1       1.020   1.895  -2.272  0.00  0.00    -0.246 OA
ATOM     17  C   UNL     1       0.214   4.882   0.322  0.00  0.00    +0.088 A 
ATOM     18  C   UNL     1       0.688   5.169  -1.035  0.00  0.00    +0.254 A 
ATOM     19  O   UNL     1       0.801   6.318  -1.438  0.00  0.00    -0.268 OA
ATOM     20  H   UNL     1       1.326   4.245  -2.725  0.00  0.00    +0.173 HD
ENDBRANCH   7  12
BRANCH   9  21
ATOM     21  O   UNL     1      -2.292   0.576   0.091  0.00  0.00    -0.385 OA
ATOM     22  H   UNL     1      -2.415  -0.146   0.742  0.00  0.00    +0.210 HD
ENDBRANCH   9  21
BRANCH  11  23
ATOM     23  O   UNL     1      -0.914  -1.487   1.023  0.00  0.00    -0.386 OA
ATOM     24  H   UNL     1      -0.177  -1.396   1.656  0.00  0.00    +0.210 HD
ENDBRANCH  11  23
ENDBRANCH   6  10
ENDBRANCH   5   6
ENDBRANCH   1   5
BRANCH   1  25
ATOM     25  O   UNL     1       4.083  -1.898  -3.131  0.00  0.00    -0.186 OA
BRANCH  25  26
ATOM     26  P   UNL     1       4.082  -2.495  -1.507  0.00  0.00    +0.486 P 
ATOM     27  O   UNL     1       4.080  -3.029  -0.054  0.00  0.00    -0.227 OA
BRANCH  26  28
ATOM     28  O   UNL     1       4.889  -1.122  -1.102  0.00  0.00    -0.302 OA
ATOM     29  H   UNL     1       4.787  -0.989  -0.142  0.00  0.00    +0.222 HD
ENDBRANCH  26  28
BRANCH  26  30
ATOM     30  O   UNL     1       5.406  -3.454  -1.920  0.00  0.00    -0.254 OA
BRANCH  30  31
ATOM     31  C   UNL     1       5.459  -4.740  -1.254  0.00  0.00    +0.293 C 
ATOM     32  C   UNL     1       6.700  -5.550  -1.669  0.00  0.00    +0.202 C 
ATOM     33  O   UNL     1       4.215  -5.404  -1.449  0.00  0.00    -0.346 OA
ATOM     34  C   UNL     1       6.447  -6.151  -3.041  0.00  0.00    +0.178 C 
ATOM     35  C   UNL     1       4.170  -6.714  -1.982  0.00  0.00    +0.197 C 
ATOM     36  C   UNL     1       5.280  -7.138  -2.946  0.00  0.00    +0.171 C 
BRANCH  32  37
ATOM     37  O   UNL     1       7.888  -4.757  -1.634  0.00  0.00    -0.384 OA
ATOM     38  H   UNL     1       7.706  -3.962  -2.178  0.00  0.00    +0.210 HD
ENDBRANCH  32  37
BRANCH  34  39
ATOM     39  O   UNL     1       7.605  -6.834  -3.551  0.00  0.00    -0.386 OA
ATOM     40  H   UNL     1       7.862  -7.524  -2.915  0.00  0.00    +0.210 HD
ENDBRANCH  34  39
BRANCH  36  41
ATOM     41  O   UNL     1       4.724  -7.406  -4.241  0.00  0.00    -0.387 OA
ATOM     42  H   UNL     1       4.682  -6.563  -4.727  0.00  0.00    +0.210 HD
ENDBRANCH  36  41
ENDBRANCH  30  31
ENDBRANCH  26  30
ENDBRANCH  25  26
ENDBRANCH   1  25
TORSDOF 15
