REMARK  Name = 
REMARK  11 active torsions:
REMARK  status: ('A' for Active; 'I' for Inactive)
REMARK    1  A    between atoms: P_1  and  O_2
REMARK    2  A    between atoms: P_1  and  O_3
REMARK    3  A    between atoms: P_1  and  O_4
REMARK    4  A    between atoms: O_2  and  C_6
REMARK    5  A    between atoms: C_6  and  C_7
REMARK    6  A    between atoms: C_7  and  C_9
REMARK    7  A    between atoms: C_7  and  O_10
REMARK    8  A    between atoms: C_9  and  O_11
REMARK    9  A    between atoms: O_11  and  P_12
REMARK   10  A    between atoms: P_12  and  O_13
REMARK   11  A    between atoms: P_12  and  O_14
REMARK                            x       y       z     vdW  Elec       q    Type
REMARK                         _______ _______ _______ _____ _____    ______ ____
ROOT
ATOM      1  C   UNL     1       0.707   1.358  -2.539  0.00  0.00    +0.249 C 
ENDROOT
BRANCH   1   2
ATOM      2  C   UNL     1       0.800  -0.168  -2.560  0.00  0.00    +0.346 C 
ATOM      3  O   UNL     1       1.029  -0.832  -3.565  0.00  0.00    -0.247 OA
BRANCH   2   4
ATOM      4  O   UNL     1       0.759  -0.677  -1.307  0.00  0.00    -0.369 OA
BRANCH   4   5
ATOM      5  P   UNL     1       1.878  -1.828  -0.964  0.00  0.00    +0.530 P 
ATOM      6  O   UNL     1       0.911  -3.033  -1.067  0.00  0.00    -0.216 OA
BRANCH   5   7
ATOM      7  O   UNL     1       1.862  -1.774   0.668  0.00  0.00    -0.293 OA
ATOM      8  H   UNL     1       1.545  -2.646   0.979  0.00  0.00    +0.223 HD
ENDBRANCH   5   7
BRANCH   5   9
ATOM      9  O   UNL     1       2.957  -0.481  -0.850  0.00  0.00    -0.293 OA
ATOM     10  H   UNL     1       2.523   0.156  -0.244  0.00  0.00    +0.223 HD
ENDBRANCH   5   9
ENDBRANCH   4   5
ENDBRANCH   2   4
ENDBRANCH   1   2
BRANCH   1  11
ATOM     11  O   UNL     1       0.685   1.942  -1.230  0.00  0.00    -0.379 OA
ATOM     12  H   UNL     1      -0.244   2.070  -0.967  0.00  0.00    +0.211 HD
ENDBRANCH   1  11
BRANCH   1  13
ATOM     13  C   UNL     1      -0.490   1.814  -3.364  0.00  0.00    +0.215 C 
BRANCH  13  14
ATOM     14  O   UNL     1      -0.422   3.225  -3.508  0.00  0.00    -0.284 OA
BRANCH  14  15
ATOM     15  P   UNL     1      -1.785   3.991  -3.820  0.00  0.00    +0.472 P 
ATOM     16  O   UNL     1      -2.483   3.705  -5.098  0.00  0.00    -0.228 OA
BRANCH  15  17
ATOM     17  O   UNL     1      -2.623   3.849  -2.475  0.00  0.00    -0.303 OA
ATOM     18  H   UNL     1      -2.597   4.698  -1.992  0.00  0.00    +0.222 HD
ENDBRANCH  15  17
BRANCH  15  19
ATOM     19  O   UNL     1      -1.325   5.516  -3.678  0.00  0.00    -0.303 OA
ATOM     20  H   UNL     1      -0.820   5.795  -4.472  0.00  0.00    +0.222 HD
ENDBRANCH  15  19
ENDBRANCH  14  15
ENDBRANCH  13  14
ENDBRANCH   1  13
TORSDOF 11
