REMARK  Name = 
REMARK  4 active torsions:
REMARK  status: ('A' for Active; 'I' for Inactive)
REMARK    1  A    between atoms: C_1  and  O_4
REMARK    2  A    between atoms: C_2  and  O_6
REMARK    3  A    between atoms: C_3  and  O_8
REMARK    4  A    between atoms: C_5  and  O_10
REMARK                            x       y       z     vdW  Elec       q    Type
REMARK                         _______ _______ _______ _____ _____    ______ ____
ROOT
ATOM      1  C   UNL     1       0.653   1.245  -0.247  0.00  0.00    +0.178 C 
ATOM      2  C   UNL     1       1.391  -0.026   0.194  0.00  0.00    +0.201 C 
ATOM      3  C   UNL     1      -0.829   1.214   0.168  0.00  0.00    +0.171 C 
ATOM      4  C   UNL     1       0.595  -1.286  -0.196  0.00  0.00    +0.279 C 
ATOM      5  C   UNL     1      -1.468  -0.132  -0.179  0.00  0.00    +0.197 C 
ATOM      6  O   UNL     1      -0.714  -1.217   0.364  0.00  0.00    -0.346 OA
ENDROOT
BRANCH   1   7
ATOM      7  O   UNL     1       0.744   1.465  -1.665  0.00  0.00    -0.386 OA
ATOM      8  H   UNL     1       0.444   0.677  -2.150  0.00  0.00    +0.210 HD
ENDBRANCH   1   7
BRANCH   2   9
ATOM      9  O   UNL     1       1.563  -0.026   1.626  0.00  0.00    -0.384 OA
ATOM     10  H   UNL     1       0.705  -0.280   2.023  0.00  0.00    +0.210 HD
ENDBRANCH   2   9
BRANCH   3  11
ATOM     11  O   UNL     1      -1.548   2.272  -0.466  0.00  0.00    -0.387 OA
ATOM     12  H   UNL     1      -1.003   2.571  -1.221  0.00  0.00    +0.210 HD
ENDBRANCH   3  11
BRANCH   4  13
ATOM     13  O   UNL     1       1.238  -2.445   0.313  0.00  0.00    -0.365 OA
ATOM     14  H   UNL     1       1.655  -2.176   1.152  0.00  0.00    +0.213 HD
ENDBRANCH   4  13
TORSDOF 4
