REMARK  Name = 
REMARK  3 active torsions:
REMARK  status: ('A' for Active; 'I' for Inactive)
REMARK    1  A    between atoms: C_1  and  C_2
REMARK    2  A    between atoms: C_1  and  O_3
REMARK    3  A    between atoms: C_2  and  O_5
REMARK                            x       y       z     vdW  Elec       q    Type
REMARK                         _______ _______ _______ _____ _____    ______ ____
ROOT
ATOM      1  C   UNL     1       1.156  -0.015   0.023  0.00  0.00    +0.415 C 
ATOM      2  O   UNL     1       2.371  -0.087   0.008  0.00  0.00    -0.238 OA
ENDROOT
BRANCH   1   3
ATOM      3  C   UNL     1       0.294  -1.262  -0.230  0.00  0.00    +0.415 C 
ATOM      4  O   UNL     1      -0.922  -1.190  -0.214  0.00  0.00    -0.238 OA
BRANCH   3   5
ATOM      5  O   UNL     1       1.037  -2.356  -0.453  0.00  0.00    -0.473 OA
ATOM      6  H   UNL     1       1.995  -2.124  -0.407  0.00  0.00    +0.296 HD
ENDBRANCH   3   5
ENDBRANCH   1   3
BRANCH   1   7
ATOM      7  O   UNL     1       0.412   1.079   0.246  0.00  0.00    -0.473 OA
ATOM      8  H   UNL     1      -0.545   0.848   0.199  0.00  0.00    +0.296 HD
ENDBRANCH   1   7
TORSDOF 3
