REMARK  Name = 
REMARK  13 active torsions:
REMARK  status: ('A' for Active; 'I' for Inactive)
REMARK    1  A    between atoms: O_1  and  C_2
REMARK    2  A    between atoms: C_2  and  CA_3
REMARK    3  A    between atoms: CA_3  and  CB_4
REMARK    4  A    between atoms: CA_3  and  N_15
REMARK    5  A    between atoms: CB_4  and  CG_5
REMARK    6  A    between atoms: CG_5  and  CD_6
REMARK    7  A    between atoms: N_7  and  CA_8
REMARK    8  A    between atoms: CA_8  and  C_9
REMARK    9  A    between atoms: CA_8  and  CB_17
REMARK   10  A    between atoms: N_10  and  CA_11
REMARK   11  A    between atoms: CA_11  and  C_12
REMARK   12  A    between atoms: C_12  and  O_13
REMARK   13  A    between atoms: CB_17  and  SG_18
REMARK                            x       y       z     vdW  Elec       q    Type
REMARK                         _______ _______ _______ _____ _____    ______ ____
ROOT
ATOM      1  CD  CYS A   1       0.716  -0.618  -0.129  0.00  0.00    +0.214 C 
ATOM      2  N   CYS A   1       0.393   0.628   0.330  0.00  0.00    -0.303 N 
ATOM      3  OE1 CYS A   1       1.817  -1.126   0.072  0.00  0.00    -0.276 OA
ATOM      4  H   CYS A   1      -0.356   1.109  -0.174  0.00  0.00    +0.149 HD
ENDROOT
BRANCH   1   5
ATOM      5  CG  CYS A   1      -0.338  -1.322  -0.963  0.00  0.00    +0.098 C 
BRANCH   5   6
ATOM      6  CB  CYS A   1      -1.567  -1.850  -0.211  0.00  0.00    +0.039 C 
BRANCH   6   7
ATOM      7  CA  CYS A   1      -2.486  -0.828   0.469  0.00  0.00    +0.161 C 
BRANCH   7   8
ATOM      8  N   CYS A   1      -3.710  -1.507   1.000  0.00  0.00    -0.318 NA
ATOM      9  H1  CYS A   1      -3.518  -2.506   1.122  0.00  0.00    +0.119 HD
ATOM     10  H2  CYS A   1      -3.876  -1.167   1.954  0.00  0.00    +0.119 HD
ENDBRANCH   7   8
BRANCH   7  11
ATOM     11  C   CYS A   1      -2.949   0.287  -0.484  0.00  0.00    +0.322 C 
ATOM     12  OXT CYS A   1      -2.187   1.087  -1.015  0.00  0.00    -0.249 OA
BRANCH  11  13
ATOM     13  O   CYS A   1      -4.290   0.292  -0.653  0.00  0.00    -0.480 OA
ATOM     14  H   CYS A   1      -4.632  -0.456  -0.100  0.00  0.00    +0.295 HD
ENDBRANCH  11  13
ENDBRANCH   7  11
ENDBRANCH   6   7
ENDBRANCH   5   6
ENDBRANCH   1   5
BRANCH   2  15
ATOM     15  CA  CYS A   1       1.227   1.487   1.200  0.00  0.00    +0.168 C 
BRANCH  15  16
ATOM     16  C   CYS A   1       2.484   2.124   0.560  0.00  0.00    +0.235 C 
ATOM     17  N   GLY A   2       3.300   1.274  -0.147  0.00  0.00    -0.303 N 
ATOM     18  O   CYS A   1       2.811   3.279   0.815  0.00  0.00    -0.274 OA
ATOM     19  H   GLY A   2       3.011   0.302  -0.270  0.00  0.00    +0.149 HD
BRANCH  17  20
ATOM     20  CA  GLY A   2       4.522   1.732  -0.804  0.00  0.00    +0.224 C 
BRANCH  20  21
ATOM     21  C   GLY A   2       5.808   1.411  -0.046  0.00  0.00    +0.322 C 
ATOM     22  OXT GLY A   2       6.926   1.654  -0.481  0.00  0.00    -0.249 OA
BRANCH  21  23
ATOM     23  O   GLY A   2       5.618   0.816   1.153  0.00  0.00    -0.480 OA
ATOM     24  H   GLY A   2       4.664   0.713   1.357  0.00  0.00    +0.295 HD
ENDBRANCH  21  23
ENDBRANCH  20  21
ENDBRANCH  17  20
ENDBRANCH  15  16
BRANCH  15  25
ATOM     25  CB  CYS A   1       1.552   0.935   2.605  0.00  0.00    +0.097 C 
BRANCH  25  26
ATOM     26  SG  CYS A   1       2.831  -0.356   2.768  0.00  0.00    -0.176 S 
ATOM     27  HG  CYS A   1       2.308  -1.213   1.870  0.00  0.00    +0.102 HD
ENDBRANCH  25  26
ENDBRANCH  15  25
ENDBRANCH   2  15
TORSDOF 13
