REMARK  Name = 
REMARK  1 active torsions:
REMARK  status: ('A' for Active; 'I' for Inactive)
REMARK    1  A    between atoms: C_1  and  O_2
REMARK                            x       y       z     vdW  Elec       q    Type
REMARK                         _______ _______ _______ _____ _____    ______ ____
ROOT
ATOM      1  C   UNL     1       0.954   0.079   0.004  0.00  0.00    +0.189 C 
ATOM      2  O   UNL     1       2.369   0.089   0.009  0.00  0.00    -0.398 OA
ATOM      3  H   UNL     1       2.662  -0.734  -0.419  0.00  0.00    +0.209 HD
ENDROOT
TORSDOF 0
