REMARK  Name = 
REMARK  16 active torsions:
REMARK  status: ('A' for Active; 'I' for Inactive)
REMARK    1  A    between atoms: C_1  and  C_3
REMARK    2  A    between atoms: C_2  and  C_4
REMARK    3  A    between atoms: C_3  and  C_5
REMARK    4  A    between atoms: C_4  and  C_6
REMARK    5  A    between atoms: C_7  and  C_9
REMARK    6  A    between atoms: C_8  and  C_10
REMARK    7  A    between atoms: C_9  and  C_11
REMARK    8  A    between atoms: C_10  and  C_12
REMARK    9  A    between atoms: C_11  and  C_13
REMARK   10  A    between atoms: C_13  and  C_15
REMARK   11  A    between atoms: C_14  and  C_16
REMARK   12  A    between atoms: C_15  and  O_17
REMARK   13  A    between atoms: C_16  and  C_19
REMARK   14  A    between atoms: C_19  and  C_20
REMARK   15  A    between atoms: C_20  and  C_21
REMARK   16  A    between atoms: C_21  and  C_22
REMARK                            x       y       z     vdW  Elec       q    Type
REMARK                         _______ _______ _______ _____ _____    ______ ____
ROOT
ATOM      1  C   UNL     1      -0.358   0.326  -1.353  0.00  0.00    -0.027 C 
ATOM      2  C   UNL     1       0.516   1.011  -0.596  0.00  0.00    -0.027 C 
ENDROOT
BRANCH   1   3
ATOM      3  C   UNL     1      -0.847   0.760  -2.700  0.00  0.00    +0.053 C 
BRANCH   3   4
ATOM      4  C   UNL     1      -0.583  -0.301  -3.721  0.00  0.00    -0.027 C 
ATOM      5  C   UNL     1      -1.512  -0.837  -4.526  0.00  0.00    -0.031 C 
BRANCH   5   6
ATOM      6  C   UNL     1      -2.956  -0.436  -4.499  0.00  0.00    +0.027 C 
BRANCH   6   7
ATOM      7  C   UNL     1      -3.777  -1.194  -5.532  0.00  0.00    +0.015 C 
BRANCH   7   8
ATOM      8  C   UNL     1      -5.243  -0.775  -5.468  0.00  0.00    +0.121 C 
BRANCH   8   9
ATOM      9  C   UNL     1      -6.071  -1.523  -6.482  0.00  0.00    +0.305 C 
ATOM     10  O   UNL     1      -5.647  -2.359  -7.265  0.00  0.00    -0.251 OA
BRANCH   9  11
ATOM     11  O   UNL     1      -7.375  -1.162  -6.432  0.00  0.00    -0.481 OA
ATOM     12  H   UNL     1      -7.578  -0.481  -5.764  0.00  0.00    +0.295 HD
ENDBRANCH   9  11
ENDBRANCH   8   9
ENDBRANCH   7   8
ENDBRANCH   6   7
ENDBRANCH   5   6
ENDBRANCH   3   4
ENDBRANCH   1   3
BRANCH   2  13
ATOM     13  C   UNL     1       1.101   2.361  -0.920  0.00  0.00    +0.053 C 
BRANCH  13  14
ATOM     14  C   UNL     1       0.108   3.467  -1.197  0.00  0.00    -0.027 C 
ATOM     15  C   UNL     1      -1.115   3.658  -0.670  0.00  0.00    -0.027 C 
BRANCH  15  16
ATOM     16  C   UNL     1      -1.775   2.803   0.365  0.00  0.00    +0.053 C 
BRANCH  16  17
ATOM     17  C   UNL     1      -2.191   3.579   1.573  0.00  0.00    -0.027 C 
ATOM     18  C   UNL     1      -3.418   3.513   2.110  0.00  0.00    -0.031 C 
BRANCH  18  19
ATOM     19  C   UNL     1      -4.520   2.704   1.494  0.00  0.00    +0.027 C 
BRANCH  19  20
ATOM     20  C   UNL     1      -5.817   2.805   2.276  0.00  0.00    +0.004 C 
BRANCH  20  21
ATOM     21  C   UNL     1      -6.916   2.025   1.562  0.00  0.00    +0.000 C 
BRANCH  21  22
ATOM     22  C   UNL     1      -8.227   2.129   2.330  0.00  0.00    -0.003 C 
ATOM     23  C   UNL     1      -9.335   1.372   1.622  0.00  0.00    +0.004 C 
ENDBRANCH  21  22
ENDBRANCH  20  21
ENDBRANCH  19  20
ENDBRANCH  18  19
ENDBRANCH  16  17
ENDBRANCH  15  16
ENDBRANCH  13  14
ENDBRANCH   2  13
TORSDOF 15
