REMARK  Name = 
REMARK  3 active torsions:
REMARK  status: ('A' for Active; 'I' for Inactive)
REMARK    1  A    between atoms: C_1  and  C_4
REMARK    2  A    between atoms: C_2  and  N_6
REMARK    3  A    between atoms: C_4  and  O_8
REMARK                            x       y       z     vdW  Elec       q    Type
REMARK                         _______ _______ _______ _____ _____    ______ ____
ROOT
ATOM      1  C   UNL     1       0.264   1.261  -0.007  0.00  0.00    +0.079 A 
ATOM      2  C   UNL     1       0.980   0.044   0.006  0.00  0.00    +0.039 A 
ATOM      3  C   UNL     1      -1.141   1.254  -0.064  0.00  0.00    +0.017 A 
ATOM      4  C   UNL     1       0.256  -1.155   0.063  0.00  0.00    +0.023 A 
ATOM      5  C   UNL     1      -1.838   0.045  -0.045  0.00  0.00    +0.001 A 
ATOM      6  C   UNL     1      -1.140  -1.157   0.021  0.00  0.00    +0.002 A 
ENDROOT
BRANCH   2   7
ATOM      7  N   UNL     1       2.375  -0.009   0.200  0.00  0.00    -0.357 N 
ATOM      8  H   UNL     1       2.841   0.844  -0.133  0.00  0.00    +0.142 HD
ATOM      9  H   UNL     1       2.813  -0.840  -0.183  0.00  0.00    +0.142 HD
ENDBRANCH   2   7
BRANCH   1  10
ATOM     10  C   UNL     1       1.009   2.549  -0.065  0.00  0.00    +0.339 C 
ATOM     11  O   UNL     1       2.100   2.663  -0.604  0.00  0.00    -0.245 OA
BRANCH  10  12
ATOM     12  O   UNL     1       0.385   3.582   0.541  0.00  0.00    -0.477 OA
ATOM     13  H   UNL     1      -0.370   3.330   1.103  0.00  0.00    +0.295 HD
ENDBRANCH  10  12
ENDBRANCH   1  10
TORSDOF 3
