REMARK  Name = 
REMARK  1 active torsions:
REMARK  status: ('A' for Active; 'I' for Inactive)
REMARK    1  A    between atoms: C_1  and  O_2
REMARK                            x       y       z     vdW  Elec       q    Type
REMARK                         _______ _______ _______ _____ _____    ______ ____
ROOT
ATOM      1  C   UNL     1       0.916   0.095  -0.006  0.00  0.00    +0.443 C 
ATOM      2  O   UNL     1       0.372  -0.854   0.527  0.00  0.00    -0.255 OA
ENDROOT
BRANCH   1   3
ATOM      3  O   UNL     1       0.260   1.121  -0.581  0.00  0.00    -0.483 OA
ATOM      4  H   UNL     1       0.872   1.784  -0.953  0.00  0.00    +0.295 HD
ENDBRANCH   1   3
TORSDOF 1
