REMARK  Name = 
REMARK  16 active torsions:
REMARK  status: ('A' for Active; 'I' for Inactive)
REMARK    1  A    between atoms: C_1  and  C_2
REMARK    2  A    between atoms: C_1  and  C_3
REMARK    3  A    between atoms: C_2  and  C_4
REMARK    4  A    between atoms: C_3  and  C_5
REMARK    5  A    between atoms: C_4  and  C_6
REMARK    6  A    between atoms: C_5  and  C_7
REMARK    7  A    between atoms: C_6  and  C_8
REMARK    8  A    between atoms: C_7  and  C_9
REMARK    9  A    between atoms: C_8  and  C_10
REMARK   10  A    between atoms: C_9  and  C_11
REMARK   11  A    between atoms: C_10  and  C_12
REMARK   12  A    between atoms: C_11  and  O_13
REMARK   13  A    between atoms: C_12  and  C_15
REMARK   14  A    between atoms: C_15  and  C_16
REMARK   15  A    between atoms: C_16  and  C_17
REMARK   16  A    between atoms: C_17  and  C_18
REMARK                            x       y       z     vdW  Elec       q    Type
REMARK                         _______ _______ _______ _____ _____    ______ ____
ROOT
ATOM      1  C   UNL     1       0.459  -1.096  -0.766  0.00  0.00    +0.000 C 
ENDROOT
BRANCH   1   2
ATOM      2  C   UNL     1       0.968   0.084   0.040  0.00  0.00    +0.000 C 
BRANCH   2   3
ATOM      3  C   UNL     1       2.484   0.092   0.043  0.00  0.00    +0.000 C 
BRANCH   3   4
ATOM      4  C   UNL     1       2.998   1.272   0.851  0.00  0.00    +0.001 C 
BRANCH   4   5
ATOM      5  C   UNL     1       4.520   1.274   0.853  0.00  0.00    +0.011 C 
BRANCH   5   6
ATOM      6  C   UNL     1       5.077   2.448   1.660  0.00  0.00    +0.120 C 
BRANCH   6   7
ATOM      7  C   UNL     1       6.593   2.447   1.656  0.00  0.00    +0.305 C 
ATOM      8  O   UNL     1       7.259   1.614   1.082  0.00  0.00    -0.251 OA
BRANCH   7   9
ATOM      9  O   UNL     1       7.171   3.450   2.346  0.00  0.00    -0.481 OA
ATOM     10  H   UNL     1       6.600   4.100   2.794  0.00  0.00    +0.295 HD
ENDBRANCH   7   9
ENDBRANCH   6   7
ENDBRANCH   5   6
ENDBRANCH   4   5
ENDBRANCH   3   4
ENDBRANCH   2   3
ENDBRANCH   1   2
BRANCH   1  11
ATOM     11  C   UNL     1      -1.057  -1.100  -0.769  0.00  0.00    -0.000 C 
BRANCH  11  12
ATOM     12  C   UNL     1      -1.567  -2.279  -1.574  0.00  0.00    -0.000 C 
BRANCH  12  13
ATOM     13  C   UNL     1      -3.083  -2.283  -1.577  0.00  0.00    -0.000 C 
BRANCH  13  14
ATOM     14  C   UNL     1      -3.594  -3.463  -2.383  0.00  0.00    -0.000 C 
BRANCH  14  15
ATOM     15  C   UNL     1      -5.110  -3.467  -2.386  0.00  0.00    -0.000 C 
BRANCH  15  16
ATOM     16  C   UNL     1      -5.622  -4.647  -3.191  0.00  0.00    -0.000 C 
BRANCH  16  17
ATOM     17  C   UNL     1      -7.140  -4.653  -3.195  0.00  0.00    -0.000 C 
BRANCH  17  18
ATOM     18  C   UNL     1      -7.659  -5.833  -4.001  0.00  0.00    -0.003 C 
ATOM     19  C   UNL     1      -9.173  -5.838  -4.005  0.00  0.00    +0.004 C 
ENDBRANCH  17  18
ENDBRANCH  16  17
ENDBRANCH  15  16
ENDBRANCH  14  15
ENDBRANCH  13  14
ENDBRANCH  12  13
ENDBRANCH  11  12
ENDBRANCH   1  11
TORSDOF 15
