REMARK  Name = 
REMARK  3 active torsions:
REMARK  status: ('A' for Active; 'I' for Inactive)
REMARK    1  A    between atoms: CA_1  and  C_2
REMARK    2  A    between atoms: CA_1  and  N_3
REMARK    3  A    between atoms: C_2  and  O_4
REMARK                            x       y       z     vdW  Elec       q    Type
REMARK                         _______ _______ _______ _____ _____    ______ ____
ROOT
ATOM      1  CA  GLY A   1       1.088   0.056  -0.050  0.00  0.00    +0.105 C 
ENDROOT
BRANCH   1   2
ATOM      2  N   GLY A   1       2.556   0.048  -0.019  0.00  0.00    -0.328 NA
ATOM      3  H1  GLY A   1       2.861  -0.631   0.680  0.00  0.00    +0.118 HD
ATOM      4  H2  GLY A   1       2.878   0.950   0.332  0.00  0.00    +0.118 HD
ENDBRANCH   1   2
BRANCH   1   5
ATOM      5  C   GLY A   1       0.531  -1.224  -0.679  0.00  0.00    +0.170 C 
BRANCH   5   6
ATOM      6  O   GLY A   1       0.983  -2.369   0.039  0.00  0.00    -0.394 OA
ATOM      7  H   GLY A   1       1.941  -2.413  -0.134  0.00  0.00    +0.209 HD
ENDBRANCH   5   6
ENDBRANCH   1   5
TORSDOF 3
