REMARK  Name = 
REMARK  5 active torsions:
REMARK  status: ('A' for Active; 'I' for Inactive)
REMARK    1  A    between atoms: P_1  and  O_2
REMARK    2  A    between atoms: P_1  and  O_3
REMARK    3  A    between atoms: P_1  and  O_4
REMARK    4  A    between atoms: O_2  and  C_6
REMARK    5  A    between atoms: C_6  and  C_7
REMARK                            x       y       z     vdW  Elec       q    Type
REMARK                         _______ _______ _______ _____ _____    ______ ____
ROOT
ATOM      1  P   UNL     1       1.084   0.040   0.036  0.00  0.00    +0.530 P 
ATOM      2  O   UNL     1       2.629   0.140  -0.001  0.00  0.00    -0.216 OA
ENDROOT
BRANCH   1   3
ATOM      3  O   UNL     1       0.791   1.411  -0.813  0.00  0.00    -0.293 OA
ATOM      4  H   UNL     1       0.716   1.220  -1.765  0.00  0.00    +0.223 HD
ENDBRANCH   1   3
BRANCH   1   5
ATOM      5  O   UNL     1      -0.642  -0.072   0.078  0.00  0.00    -0.293 OA
ATOM      6  H   UNL     1      -0.941   0.723   0.560  0.00  0.00    +0.223 HD
ENDBRANCH   1   5
BRANCH   1   7
ATOM      7  O   UNL     1       0.922   0.669   1.543  0.00  0.00    -0.372 OA
BRANCH   7   8
ATOM      8  C   UNL     1       1.087  -0.130   2.613  0.00  0.00    +0.312 C 
ATOM      9  C   UNL     1       0.988   0.645   3.887  0.00  0.00    +0.136 C 
ATOM     10  O   UNL     1       1.260  -1.339   2.550  0.00  0.00    -0.251 OA
ENDBRANCH   7   8
ENDBRANCH   1   7
TORSDOF 4
