REMARK  Name = 
REMARK  10 active torsions:
REMARK  status: ('A' for Active; 'I' for Inactive)
REMARK    1  A    between atoms: N_1  and  C_3
REMARK    2  A    between atoms: C_8  and  O_14
REMARK    3  A    between atoms: C_12  and  C_17
REMARK    4  A    between atoms: C_13  and  O_18
REMARK    5  A    between atoms: C_17  and  O_19
REMARK    6  A    between atoms: O_19  and  P_20
REMARK    7  A    between atoms: P_20  and  O_21
REMARK    8  A    between atoms: P_20  and  O_22
REMARK    9  A    between atoms: O_21  and  S_24
REMARK   10  A    between atoms: S_24  and  O_25
REMARK                            x       y       z     vdW  Elec       q    Type
REMARK                         _______ _______ _______ _____ _____    ______ ____
ROOT
ATOM      1  C   UNL     1       2.116   2.440  -0.121  0.00  0.00    +0.253 C 
ATOM      2  O   UNL     1       1.817   3.284   1.021  0.00  0.00    -0.346 OA
ATOM      3  C   UNL     1       1.580   3.173  -1.354  0.00  0.00    +0.195 C 
ATOM      4  C   UNL     1       1.372   4.582   0.569  0.00  0.00    +0.178 C 
ATOM      5  C   UNL     1       1.701   4.628  -0.922  0.00  0.00    +0.178 C 
ENDROOT
BRANCH   1   6
ATOM      6  N   UNL     1       1.544   1.127   0.102  0.00  0.00    -0.286 N 
ATOM      7  C   UNL     1       2.023  -0.053  -0.404  0.00  0.00    +0.167 A 
ATOM      8  C   UNL     1       0.494   0.818   0.927  0.00  0.00    +0.203 A 
ATOM      9  C   UNL     1       1.215  -1.033   0.153  0.00  0.00    +0.147 A 
ATOM     10  N   UNL     1       3.060  -0.237  -1.237  0.00  0.00    -0.216 NA
ATOM     11  N   UNL     1       0.255  -0.476   0.968  0.00  0.00    -0.231 NA
ATOM     12  C   UNL     1       1.514  -2.366  -0.175  0.00  0.00    +0.147 A 
ATOM     13  C   UNL     1       3.243  -1.551  -1.490  0.00  0.00    +0.225 A 
ATOM     14  N   UNL     1       2.554  -2.608  -1.004  0.00  0.00    -0.219 NA
ATOM     15  N   UNL     1       0.807  -3.449   0.336  0.00  0.00    -0.341 N 
ATOM     16  H   UNL     1       0.308  -3.225   1.191  0.00  0.00    +0.144 HD
ATOM     17  H   UNL     1       1.355  -4.299   0.326  0.00  0.00    +0.144 HD
ENDBRANCH   1   6
BRANCH   3  18
ATOM     18  O   UNL     1       2.322   2.935  -2.550  0.00  0.00    -0.385 OA
ATOM     19  H   UNL     1       3.058   3.584  -2.553  0.00  0.00    +0.210 HD
ENDBRANCH   3  18
BRANCH   5  20
ATOM     20  O   UNL     1       3.057   5.054  -1.155  0.00  0.00    -0.386 OA
ATOM     21  H   UNL     1       3.596   4.869  -0.362  0.00  0.00    +0.210 HD
ENDBRANCH   5  20
BRANCH   4  22
ATOM     22  C   UNL     1      -0.130   4.763   0.852  0.00  0.00    +0.206 C 
BRANCH  22  23
ATOM     23  O   UNL     1      -0.393   4.759   2.259  0.00  0.00    -0.283 OA
BRANCH  23  24
ATOM     24  P   UNL     1      -2.057   4.985   2.674  0.00  0.00    +0.498 P 
ATOM     25  O   UNL     1      -3.547   5.186   3.045  0.00  0.00    -0.225 OA
BRANCH  24  26
ATOM     26  O   UNL     1      -1.752   6.596   2.520  0.00  0.00    -0.301 OA
ATOM     27  H   UNL     1      -2.152   6.970   1.717  0.00  0.00    +0.222 HD
ENDBRANCH  24  26
BRANCH  24  28
ATOM     28  O   UNL     1      -1.583   4.802   4.229  0.00  0.00    -0.109 OA
BRANCH  28  29
ATOM     29  S   UNL     1      -1.757   3.225   4.521  0.00  0.00    +0.216 S 
ATOM     30  O   UNL     1      -3.157   2.868   4.530  0.00  0.00    -0.118 OA
ATOM     31  O   UNL     1      -0.806   2.477   3.725  0.00  0.00    -0.118 OA
BRANCH  29  32
ATOM     32  O   UNL     1      -1.295   3.120   6.059  0.00  0.00    -0.231 OA
ATOM     33  H   UNL     1      -2.033   3.452   6.611  0.00  0.00    +0.247 HD
ENDBRANCH  29  32
ENDBRANCH  28  29
ENDBRANCH  24  28
ENDBRANCH  23  24
ENDBRANCH  22  23
ENDBRANCH   4  22
TORSDOF 10
