REMARK  Name = 
REMARK  1 active torsions:
REMARK  status: ('A' for Active; 'I' for Inactive)
REMARK    1  A    between atoms: C_1  and  N_2
REMARK                            x       y       z     vdW  Elec       q    Type
REMARK                         _______ _______ _______ _____ _____    ______ ____
ROOT
ATOM      1  C   UNL     1       0.982  -0.078   0.051  0.00  0.00    +0.097 C 
ATOM      2  N   UNL     1       2.434  -0.086   0.040  0.00  0.00    -0.333 NA
ATOM      3  H   UNL     1       2.778  -0.409   0.943  0.00  0.00    +0.118 HD
ATOM      4  H   UNL     1       2.778   0.867  -0.070  0.00  0.00    +0.118 HD
ENDROOT
TORSDOF 0
