REMARK  Name = 
REMARK  4 active torsions:
REMARK  status: ('A' for Active; 'I' for Inactive)
REMARK    1  A    between atoms: C_1  and  C_2
REMARK    2  A    between atoms: C_1  and  C_3
REMARK    3  A    between atoms: C_1  and  O_4
REMARK    4  A    between atoms: C_2  and  O_5
REMARK                            x       y       z     vdW  Elec       q    Type
REMARK                         _______ _______ _______ _____ _____    ______ ____
ROOT
ATOM      1  C   UNL     1       0.838  -0.028  -0.011  0.00  0.00    +0.219 C 
ATOM      2  C   UNL     1       0.408   0.828  -1.190  0.00  0.00    +0.049 C 
ENDROOT
BRANCH   1   3
ATOM      3  C   UNL     1       0.182  -1.410  -0.022  0.00  0.00    +0.333 C 
ATOM      4  O   UNL     1      -0.935  -1.670  -0.436  0.00  0.00    -0.248 OA
BRANCH   3   5
ATOM      5  O   UNL     1       1.012  -2.343   0.517  0.00  0.00    -0.479 OA
ATOM      6  H   UNL     1       1.854  -1.899   0.773  0.00  0.00    +0.295 HD
ENDBRANCH   3   5
ENDBRANCH   1   3
BRANCH   1   7
ATOM      7  O   UNL     1       2.263  -0.205  -0.018  0.00  0.00    -0.381 OA
ATOM      8  H   UNL     1       2.526  -0.403  -0.938  0.00  0.00    +0.210 HD
ENDBRANCH   1   7
TORSDOF 3
