REMARK  Name = 
REMARK  4 active torsions:
REMARK  status: ('A' for Active; 'I' for Inactive)
REMARK    1  A    between atoms: C_1  and  C_2
REMARK    2  A    between atoms: C_1  and  C_3
REMARK    3  A    between atoms: C_2  and  O_4
REMARK    4  A    between atoms: C_3  and  C_6
REMARK                            x       y       z     vdW  Elec       q    Type
REMARK                         _______ _______ _______ _____ _____    ______ ____
ROOT
ATOM      1  C   UNL     1       0.499   1.245  -0.767  0.00  0.00    +0.305 C 
ATOM      2  O   UNL     1       1.060   1.835  -1.676  0.00  0.00    -0.251 OA
ENDROOT
BRANCH   1   3
ATOM      3  O   UNL     1      -0.715   1.619  -0.306  0.00  0.00    -0.481 OA
ATOM      4  H   UNL     1      -1.062   1.055   0.409  0.00  0.00    +0.295 HD
ENDBRANCH   1   3
BRANCH   1   5
ATOM      5  C   UNL     1       1.041   0.020  -0.067  0.00  0.00    +0.120 C 
BRANCH   5   6
ATOM      6  C   UNL     1       2.568  -0.048  -0.082  0.00  0.00    +0.008 C 
ATOM      7  C   UNL     1       3.211   1.058   0.745  0.00  0.00    +0.004 C 
ENDBRANCH   5   6
ENDBRANCH   1   5
TORSDOF 3
