REMARK  Name = 
REMARK  6 active torsions:
REMARK  status: ('A' for Active; 'I' for Inactive)
REMARK    1  A    between atoms: C_1  and  C_4
REMARK    2  A    between atoms: C_2  and  O_6
REMARK    3  A    between atoms: C_4  and  O_8
REMARK    4  A    between atoms: C_5  and  O_10
REMARK    5  A    between atoms: C_7  and  O_11
REMARK    6  A    between atoms: C_9  and  O_12
REMARK                            x       y       z     vdW  Elec       q    Type
REMARK                         _______ _______ _______ _____ _____    ______ ____
ROOT
ATOM      1  C   UNL     1       0.660   1.312  -0.311  0.00  0.00    +0.178 C 
ATOM      2  C   UNL     1       1.458   0.073   0.143  0.00  0.00    +0.177 C 
ATOM      3  O   UNL     1      -0.699   1.247   0.178  0.00  0.00    -0.341 OA
ATOM      4  C   UNL     1       0.731  -1.235  -0.219  0.00  0.00    +0.179 C 
ATOM      5  C   UNL     1      -1.415   0.090  -0.249  0.00  0.00    +0.279 C 
ATOM      6  C   UNL     1      -0.729  -1.194   0.245  0.00  0.00    +0.201 C 
ENDROOT
BRANCH   2   7
ATOM      7  O   UNL     1       2.778   0.070  -0.398  0.00  0.00    -0.386 OA
ATOM      8  H   UNL     1       2.732  -0.436  -1.235  0.00  0.00    +0.210 HD
ENDBRANCH   2   7
BRANCH   4   9
ATOM      9  O   UNL     1       0.824  -1.407  -1.642  0.00  0.00    -0.386 OA
ATOM     10  H   UNL     1       0.200  -2.107  -1.914  0.00  0.00    +0.210 HD
ENDBRANCH   4   9
BRANCH   5  11
ATOM     11  O   UNL     1      -2.728   0.162   0.290  0.00  0.00    -0.365 OA
ATOM     12  H   UNL     1      -2.688  -0.267   1.165  0.00  0.00    +0.213 HD
ENDBRANCH   5  11
BRANCH   6  13
ATOM     13  O   UNL     1      -0.802  -1.247   1.681  0.00  0.00    -0.384 OA
ATOM     14  H   UNL     1      -0.582  -0.358   2.022  0.00  0.00    +0.210 HD
ENDBRANCH   6  13
BRANCH   1  15
ATOM     15  C   UNL     1       0.706   1.600  -1.818  0.00  0.00    +0.190 C 
BRANCH  15  16
ATOM     16  O   UNL     1      -0.048   2.775  -2.118  0.00  0.00    -0.392 OA
ATOM     17  H   UNL     1      -0.870   2.723  -1.594  0.00  0.00    +0.210 HD
ENDBRANCH  15  16
ENDBRANCH   1  15
TORSDOF 6
