REMARK  Name = 
REMARK  13 active torsions:
REMARK  status: ('A' for Active; 'I' for Inactive)
REMARK    1  A    between atoms: C_1  and  O_2
REMARK    2  A    between atoms: C_1  and  C_5
REMARK    3  A    between atoms: O_2  and  C_6
REMARK    4  A    between atoms: C_4  and  O_9
REMARK    5  A    between atoms: C_5  and  O_10
REMARK    6  A    between atoms: C_7  and  C_13
REMARK    7  A    between atoms: C_8  and  O_14
REMARK    8  A    between atoms: C_12  and  O_17
REMARK    9  A    between atoms: C_13  and  O_18
REMARK   10  A    between atoms: C_15  and  C_20
REMARK   11  A    between atoms: C_16  and  O_21
REMARK   12  A    between atoms: C_19  and  O_22
REMARK   13  A    between atoms: C_20  and  O_23
REMARK                            x       y       z     vdW  Elec       q    Type
REMARK                         _______ _______ _______ _____ _____    ______ ____
ROOT
ATOM      1  O   UNL     1       0.854  -1.864   0.966  0.00  0.00    -0.313 OA
ENDROOT
BRANCH   1   2
ATOM      2  C   UNL     1       0.695  -1.044   2.117  0.00  0.00    +0.285 C 
ATOM      3  O   UNL     1      -0.661  -0.675   2.302  0.00  0.00    -0.340 OA
ATOM      4  C   UNL     1       1.210  -1.827   3.361  0.00  0.00    +0.201 C 
ATOM      5  C   UNL     1      -1.536  -1.799   2.488  0.00  0.00    +0.178 C 
ATOM      6  C   UNL     1       0.329  -3.058   3.624  0.00  0.00    +0.179 C 
ATOM      7  C   UNL     1      -1.158  -2.655   3.691  0.00  0.00    +0.177 C 
BRANCH   4   8
ATOM      8  O   UNL     1       2.583  -2.212   3.198  0.00  0.00    -0.384 OA
ATOM      9  H   UNL     1       2.787  -2.195   2.247  0.00  0.00    +0.210 HD
ENDBRANCH   4   8
BRANCH   6  10
ATOM     10  O   UNL     1       0.676  -3.692   4.873  0.00  0.00    -0.386 OA
ATOM     11  H   UNL     1       0.055  -4.432   4.997  0.00  0.00    +0.210 HD
ENDBRANCH   6  10
BRANCH   7  12
ATOM     12  O   UNL     1      -1.968  -3.840   3.756  0.00  0.00    -0.386 OA
ATOM     13  H   UNL     1      -1.737  -4.413   3.004  0.00  0.00    +0.210 HD
ENDBRANCH   7  12
BRANCH   5  14
ATOM     14  C   UNL     1      -2.955  -1.227   2.581  0.00  0.00    +0.190 C 
BRANCH  14  15
ATOM     15  O   UNL     1      -3.219  -0.525   1.354  0.00  0.00    -0.392 OA
ATOM     16  H   UNL     1      -4.156  -0.688   1.137  0.00  0.00    +0.210 HD
ENDBRANCH  14  15
ENDBRANCH   5  14
ENDBRANCH   1   2
BRANCH   1  17
ATOM     17  C   UNL     1       0.998  -1.233  -0.310  0.00  0.00    +0.225 C 
ATOM     18  O   UNL     1       1.905  -0.099  -0.284  0.00  0.00    -0.336 OA
ATOM     19  C   UNL     1      -0.292  -0.768  -1.036  0.00  0.00    +0.207 C 
ATOM     20  C   UNL     1       1.295   0.945  -1.077  0.00  0.00    +0.178 C 
ATOM     21  C   UNL     1      -0.209   0.748  -0.958  0.00  0.00    +0.179 C 
BRANCH  19  22
ATOM     22  O   UNL     1      -1.530  -1.309  -0.595  0.00  0.00    -0.384 OA
ATOM     23  H   UNL     1      -1.848  -0.782   0.171  0.00  0.00    +0.210 HD
ENDBRANCH  19  22
BRANCH  21  24
ATOM     24  O   UNL     1      -0.891   1.387  -2.031  0.00  0.00    -0.386 OA
ATOM     25  H   UNL     1      -1.839   1.390  -1.811  0.00  0.00    +0.210 HD
ENDBRANCH  21  24
BRANCH  17  26
ATOM     26  C   UNL     1       1.696  -2.311  -1.182  0.00  0.00    +0.223 C 
BRANCH  26  27
ATOM     27  O   UNL     1       3.017  -2.586  -0.687  0.00  0.00    -0.390 OA
ATOM     28  H   UNL     1       3.404  -1.711  -0.485  0.00  0.00    +0.210 HD
ENDBRANCH  26  27
ENDBRANCH  17  26
BRANCH  20  29
ATOM     29  C   UNL     1       1.759   2.338  -0.660  0.00  0.00    +0.190 C 
BRANCH  29  30
ATOM     30  O   UNL     1       1.454   2.594   0.707  0.00  0.00    -0.392 OA
ATOM     31  H   UNL     1       1.913   3.419   0.947  0.00  0.00    +0.210 HD
ENDBRANCH  29  30
ENDBRANCH  20  29
ENDBRANCH   1  17
TORSDOF 13
