REMARK  Name = 
REMARK  5 active torsions:
REMARK  status: ('A' for Active; 'I' for Inactive)
REMARK    1  A    between atoms: CA_1  and  C_2
REMARK    2  A    between atoms: CA_1  and  CB_3
REMARK    3  A    between atoms: CA_1  and  N_4
REMARK    4  A    between atoms: C_2  and  O_5
REMARK    5  A    between atoms: CB_3  and  OG_7
REMARK                            x       y       z     vdW  Elec       q    Type
REMARK                         _______ _______ _______ _____ _____    ______ ____
ROOT
ATOM      1  CA  SER A   1       1.030   0.091  -0.097  0.00  0.00    +0.186 C 
ENDROOT
BRANCH   1   2
ATOM      2  N   SER A   1       2.511   0.105  -0.110  0.00  0.00    -0.317 NA
ATOM      3  H1  SER A   1       2.892  -0.341   0.725  0.00  0.00    +0.119 HD
ATOM      4  H2  SER A   1       2.886   1.039  -0.257  0.00  0.00    +0.119 HD
ENDBRANCH   1   2
BRANCH   1   5
ATOM      5  C   SER A   1       0.455   1.312   0.625  0.00  0.00    +0.324 C 
ATOM      6  OXT SER A   1      -0.656   1.776   0.408  0.00  0.00    -0.249 OA
BRANCH   5   7
ATOM      7  O   SER A   1       1.265   1.800   1.593  0.00  0.00    -0.479 OA
ATOM      8  H   SER A   1       2.051   1.226   1.689  0.00  0.00    +0.295 HD
ENDBRANCH   5   7
ENDBRANCH   1   5
BRANCH   1   9
ATOM      9  CB  SER A   1       0.506  -1.162   0.614  0.00  0.00    +0.185 C 
BRANCH   9  10
ATOM     10  OG  SER A   1       1.052  -1.229   1.939  0.00  0.00    -0.393 OA
ATOM     11  H   SER A   1       0.335  -0.983   2.554  0.00  0.00    +0.209 HD
ENDBRANCH   9  10
ENDBRANCH   1   9
TORSDOF 5
