REMARK  Name = 
REMARK  27 active torsions:
REMARK  status: ('A' for Active; 'I' for Inactive)
REMARK    1  A    between atoms: O_1  and  C_2
REMARK    2  A    between atoms: C_2  and  CA_3
REMARK    3  A    between atoms: CA_3  and  CB_4
REMARK    4  A    between atoms: CA_3  and  N_16
REMARK    5  A    between atoms: CB_4  and  CG_5
REMARK    6  A    between atoms: CG_5  and  CD_6
REMARK    7  A    between atoms: N_7  and  CA_8
REMARK    8  A    between atoms: CA_8  and  C_9
REMARK    9  A    between atoms: CA_8  and  CB_17
REMARK   10  A    between atoms: N_10  and  CA_11
REMARK   11  A    between atoms: CA_11  and  C_12
REMARK   12  A    between atoms: C_12  and  O_13
REMARK   13  A    between atoms: CB_17  and  SG_20
REMARK   14  A    between atoms: SG_20  and  SG_21
REMARK   15  A    between atoms: SG_21  and  CB_22
REMARK   16  A    between atoms: CB_22  and  CA_23
REMARK   17  A    between atoms: CA_23  and  C_24
REMARK   18  A    between atoms: CA_23  and  N_25
REMARK   19  A    between atoms: N_26  and  CA_27
REMARK   20  A    between atoms: CA_27  and  C_28
REMARK   21  A    between atoms: C_28  and  O_30
REMARK   22  A    between atoms: CD_32  and  CG_33
REMARK   23  A    between atoms: CG_33  and  CB_35
REMARK   24  A    between atoms: CB_35  and  CA_36
REMARK   25  A    between atoms: CA_36  and  C_37
REMARK   26  A    between atoms: CA_36  and  N_38
REMARK   27  A    between atoms: C_37  and  O_39
REMARK                            x       y       z     vdW  Elec       q    Type
REMARK                         _______ _______ _______ _____ _____    ______ ____
ROOT
ATOM      1  SG  GLN A   1       1.355   1.791   3.640  0.00  0.00    -0.091 S 
ENDROOT
BRANCH   1   2
ATOM      2  SG  GLN A   1       0.380   2.936   5.047  0.00  0.00    -0.091 S 
BRANCH   2   3
ATOM      3  CB  GLN A   1      -1.157   1.983   5.380  0.00  0.00    +0.112 C 
BRANCH   3   4
ATOM      4  CA  GLN A   1      -0.901   0.575   5.938  0.00  0.00    +0.169 C 
BRANCH   4   5
ATOM      5  N   GLN A   1      -2.062  -0.330   5.981  0.00  0.00    -0.303 N 
ATOM      6  CD  GLN A   1      -3.375   0.037   6.142  0.00  0.00    +0.214 C 
ATOM      7  OE1 GLN A   1      -3.727   1.192   6.349  0.00  0.00    -0.276 OA
ATOM      8  H   GLN A   1      -1.852  -1.317   5.891  0.00  0.00    +0.149 HD
BRANCH   6   9
ATOM      9  CG  GLN A   1      -4.355  -1.123   6.048  0.00  0.00    +0.098 C 
BRANCH   9  10
ATOM     10  CB  GLN A   1      -5.769  -0.742   5.591  0.00  0.00    +0.039 C 
BRANCH  10  11
ATOM     11  CA  GLN A   1      -5.911  -0.371   4.103  0.00  0.00    +0.161 C 
BRANCH  11  12
ATOM     12  N   GLN A   1      -5.338   0.957   3.765  0.00  0.00    -0.318 NA
ATOM     13  H1  GLN A   1      -4.676   1.271   4.482  0.00  0.00    +0.119 HD
ATOM     14  H2  GLN A   1      -4.767   0.859   2.912  0.00  0.00    +0.119 HD
ENDBRANCH  11  12
BRANCH  11  15
ATOM     15  C   GLN A   1      -7.417  -0.291   3.763  0.00  0.00    +0.322 C 
ATOM     16  OXT GLN A   1      -8.155  -1.243   3.570  0.00  0.00    -0.249 OA
BRANCH  15  17
ATOM     17  O   GLN A   1      -7.836   1.004   3.747  0.00  0.00    -0.480 OA
ATOM     18  H   GLN A   1      -7.003   1.535   3.856  0.00  0.00    +0.295 HD
ENDBRANCH  15  17
ENDBRANCH  11  15
ENDBRANCH  10  11
ENDBRANCH   9  10
ENDBRANCH   6   9
ENDBRANCH   4   5
BRANCH   4  19
ATOM     19  C   GLN A   1      -0.155   0.621   7.284  0.00  0.00    +0.235 C 
ATOM     20  N   GLY A   2      -0.700   1.368   8.294  0.00  0.00    -0.303 N 
ATOM     21  O   GLN A   1       0.927   0.054   7.450  0.00  0.00    -0.274 OA
ATOM     22  H   GLY A   2      -1.658   1.688   8.184  0.00  0.00    +0.149 HD
BRANCH  20  23
ATOM     23  CA  GLY A   2      -0.151   1.364   9.653  0.00  0.00    +0.224 C 
BRANCH  23  24
ATOM     24  C   GLY A   2       1.186   2.078   9.903  0.00  0.00    +0.322 C 
ATOM     25  OXT GLY A   2       1.464   2.606  10.966  0.00  0.00    -0.249 OA
BRANCH  24  26
ATOM     26  O   GLY A   2       2.085   1.970   8.908  0.00  0.00    -0.480 OA
ATOM     27  H   GLY A   2       1.827   1.311   8.225  0.00  0.00    +0.295 HD
ENDBRANCH  24  26
ENDBRANCH  23  24
ENDBRANCH  20  23
ENDBRANCH   4  19
ENDBRANCH   3   4
ENDBRANCH   2   3
ENDBRANCH   1   2
BRANCH   1  28
ATOM     28  CB  GLN A   1       0.281   1.956   2.164  0.00  0.00    +0.112 C 
BRANCH  28  29
ATOM     29  CA  GLN A   1       0.029   3.403   1.721  0.00  0.00    +0.169 C 
BRANCH  29  31
ATOM     30  CD  GLN A   1      -2.290   3.625   0.953  0.00  0.00    +0.214 C 
ATOM     31  N   GLN A   1      -0.952   3.501   0.627  0.00  0.00    -0.303 N 
ATOM     32  OE1 GLN A   1      -2.719   3.466   2.091  0.00  0.00    -0.276 OA
ATOM     33  H   GLN A   1      -0.643   3.909  -0.247  0.00  0.00    +0.149 HD
BRANCH  30  34
ATOM     34  CG  GLN A   1      -3.216   3.949  -0.201  0.00  0.00    +0.098 C 
BRANCH  34  35
ATOM     35  CB  GLN A   1      -3.329   2.856  -1.266  0.00  0.00    +0.039 C 
BRANCH  35  36
ATOM     36  CA  GLN A   1      -3.878   1.491  -0.811  0.00  0.00    +0.161 C 
BRANCH  36  37
ATOM     37  N   GLN A   1      -5.238   1.619  -0.265  0.00  0.00    -0.318 NA
ATOM     38  H1  GLN A   1      -5.213   2.153   0.608  0.00  0.00    +0.119 HD
ATOM     39  H2  GLN A   1      -5.569   0.694   0.026  0.00  0.00    +0.119 HD
ENDBRANCH  36  37
BRANCH  36  40
ATOM     40  C   GLN A   1      -2.954   0.756   0.178  0.00  0.00    +0.322 C 
ATOM     41  OXT GLN A   1      -3.270   0.426   1.314  0.00  0.00    -0.249 OA
BRANCH  40  42
ATOM     42  O   GLN A   1      -1.730   0.471  -0.337  0.00  0.00    -0.480 OA
ATOM     43  H   GLN A   1      -1.646   0.682  -1.287  0.00  0.00    +0.295 HD
ENDBRANCH  40  42
ENDBRANCH  36  40
ENDBRANCH  35  36
ENDBRANCH  34  35
ENDBRANCH  30  34
ENDBRANCH  29  31
BRANCH  29  44
ATOM     44  C   GLN A   1       1.299   4.208   1.369  0.00  0.00    +0.235 C 
ATOM     45  N   GLY A   2       2.356   3.532   0.794  0.00  0.00    -0.303 N 
ATOM     46  O   GLN A   1       1.331   5.429   1.498  0.00  0.00    -0.274 OA
ATOM     47  H   GLY A   2       2.175   2.637   0.354  0.00  0.00    +0.149 HD
BRANCH  45  48
ATOM     48  CA  GLY A   2       3.514   4.278   0.288  0.00  0.00    +0.224 C 
BRANCH  48  49
ATOM     49  C   GLY A   2       4.610   4.590   1.306  0.00  0.00    +0.322 C 
ATOM     50  OXT GLY A   2       5.636   5.194   1.020  0.00  0.00    -0.249 OA
BRANCH  49  51
ATOM     51  O   GLY A   2       4.390   4.091   2.544  0.00  0.00    -0.480 OA
ATOM     52  H   GLY A   2       3.510   3.674   2.618  0.00  0.00    +0.295 HD
ENDBRANCH  49  51
ENDBRANCH  48  49
ENDBRANCH  45  48
ENDBRANCH  29  44
ENDBRANCH  28  29
ENDBRANCH   1  28
TORSDOF 27
