REMARK  Name = 
REMARK  5 active torsions:
REMARK  status: ('A' for Active; 'I' for Inactive)
REMARK    1  A    between atoms: CA_1  and  C_2
REMARK    2  A    between atoms: CA_1  and  CB_3
REMARK    3  A    between atoms: CA_1  and  N_4
REMARK    4  A    between atoms: C_2  and  O_5
REMARK    5  A    between atoms: CB_3  and  SG_7
REMARK                            x       y       z     vdW  Elec       q    Type
REMARK                         _______ _______ _______ _____ _____    ______ ____
ROOT
ATOM      1  CA  CYS A   1       1.029   0.058   0.154  0.00  0.00    +0.170 C 
ENDROOT
BRANCH   1   2
ATOM      2  N   CYS A   1       2.505   0.074   0.043  0.00  0.00    -0.318 NA
ATOM      3  H1  CYS A   1       2.970  -0.295   0.871  0.00  0.00    +0.119 HD
ATOM      4  H2  CYS A   1       2.867   0.980  -0.247  0.00  0.00    +0.119 HD
ENDBRANCH   1   2
BRANCH   1   5
ATOM      5  C   CYS A   1       0.484   1.304   0.862  0.00  0.00    +0.323 C 
ATOM      6  OXT CYS A   1      -0.656   1.721   0.724  0.00  0.00    -0.249 OA
BRANCH   5   7
ATOM      7  O   CYS A   1       1.368   1.880   1.710  0.00  0.00    -0.480 OA
ATOM      8  H   CYS A   1       2.203   1.373   1.735  0.00  0.00    +0.295 HD
ENDBRANCH   5   7
ENDBRANCH   1   5
BRANCH   1   9
ATOM      9  CB  CYS A   1       0.500  -1.204   0.854  0.00  0.00    +0.095 C 
BRANCH   9  10
ATOM     10  SG  CYS A   1       1.229  -1.469   2.516  0.00  0.00    -0.176 S 
ATOM     11  HG  CYS A   1       0.584  -0.465   3.134  0.00  0.00    +0.102 HD
ENDBRANCH   9  10
ENDBRANCH   1   9
TORSDOF 5
