REMARK  Name = 
REMARK  5 active torsions:
REMARK  status: ('A' for Active; 'I' for Inactive)
REMARK    1  A    between atoms: P_1  and  O_2
REMARK    2  A    between atoms: P_1  and  O_3
REMARK    3  A    between atoms: P_1  and  O_4
REMARK    4  A    between atoms: O_2  and  C_6
REMARK    5  A    between atoms: C_6  and  C_7
REMARK                            x       y       z     vdW  Elec       q    Type
REMARK                         _______ _______ _______ _____ _____    ______ ____
ROOT
ATOM      1  P   UNL     1       0.862  -0.199  -0.074  0.00  0.00    +0.530 P 
ATOM      2  O   UNL     1       2.206   0.204   0.430  0.00  0.00    -0.216 OA
ENDROOT
BRANCH   1   3
ATOM      3  O   UNL     1       0.039  -0.989   1.053  0.00  0.00    -0.293 OA
ATOM      4  H   UNL     1       0.203  -0.577   1.919  0.00  0.00    +0.223 HD
ENDBRANCH   1   3
BRANCH   1   5
ATOM      5  O   UNL     1      -0.184   0.975  -0.341  0.00  0.00    -0.293 OA
ATOM      6  H   UNL     1      -1.072   0.632  -0.544  0.00  0.00    +0.223 HD
ENDBRANCH   1   5
BRANCH   1   7
ATOM      7  O   UNL     1       0.782  -1.148  -1.350  0.00  0.00    -0.372 OA
BRANCH   7   8
ATOM      8  C   UNL     1       1.111  -0.716  -2.578  0.00  0.00    +0.312 C 
ATOM      9  C   UNL     1       0.926  -1.790  -3.601  0.00  0.00    +0.136 C 
ATOM     10  O   UNL     1       1.449   0.427  -2.851  0.00  0.00    -0.251 OA
ENDBRANCH   7   8
ENDBRANCH   1   7
TORSDOF 4
