REMARK  Name = 
REMARK  2 active torsions:
REMARK  status: ('A' for Active; 'I' for Inactive)
REMARK    1  A    between atoms: C_1  and  C_2
REMARK    2  A    between atoms: C_1  and  O_3
REMARK                            x       y       z     vdW  Elec       q    Type
REMARK                         _______ _______ _______ _____ _____    ______ ____
ROOT
ATOM      1  C   UNL     1       0.964  -0.030   0.021  0.00  0.00    +0.302 C 
ATOM      2  C   UNL     1       0.159  -1.258   0.330  0.00  0.00    +0.136 C 
ATOM      3  O   UNL     1       2.185  -0.009   0.016  0.00  0.00    -0.251 OA
ENDROOT
BRANCH   1   4
ATOM      4  O   UNL     1       0.221   1.063  -0.254  0.00  0.00    -0.481 OA
ATOM      5  H   UNL     1      -0.743   0.919  -0.217  0.00  0.00    +0.295 HD
ENDBRANCH   1   4
TORSDOF 1
