REMARK  Name = 
REMARK  11 active torsions:
REMARK  status: ('A' for Active; 'I' for Inactive)
REMARK    1  A    between atoms: C_1  and  N_2
REMARK    2  A    between atoms: C_4  and  O_9
REMARK    3  A    between atoms: C_7  and  C_13
REMARK    4  A    between atoms: C_8  and  O_14
REMARK    5  A    between atoms: C_13  and  O_16
REMARK    6  A    between atoms: O_16  and  P_18
REMARK    7  A    between atoms: P_18  and  O_19
REMARK    8  A    between atoms: P_18  and  O_20
REMARK    9  A    between atoms: O_19  and  P_22
REMARK   10  A    between atoms: P_22  and  O_23
REMARK   11  A    between atoms: P_22  and  O_24
REMARK                            x       y       z     vdW  Elec       q    Type
REMARK                         _______ _______ _______ _____ _____    ______ ____
ROOT
ATOM      1  C   UNL     1       0.572   1.203   0.397  0.00  0.00    +0.255 C 
ATOM      2  O   UNL     1       1.783   0.427   0.319  0.00  0.00    -0.346 OA
ATOM      3  C   UNL     1      -0.446   0.520  -0.525  0.00  0.00    +0.195 C 
ATOM      4  C   UNL     1       1.457  -0.913  -0.112  0.00  0.00    +0.178 C 
ATOM      5  C   UNL     1      -0.057  -0.945  -0.379  0.00  0.00    +0.178 C 
ENDROOT
BRANCH   1   6
ATOM      6  N   UNL     1       0.883   2.583   0.043  0.00  0.00    -0.271 N 
ATOM      7  C   UNL     1       0.628   3.570   0.985  0.00  0.00    +0.331 A 
ATOM      8  C   UNL     1       1.442   2.885  -1.185  0.00  0.00    +0.098 A 
ATOM      9  N   UNL     1       0.972   4.847   0.619  0.00  0.00    -0.275 N 
ATOM     10  O   UNL     1       0.154   3.362   2.103  0.00  0.00    -0.246 OA
ATOM     11  C   UNL     1       1.763   4.131  -1.534  0.00  0.00    +0.088 A 
ATOM     12  C   UNL     1       1.539   5.217  -0.567  0.00  0.00    +0.254 A 
ATOM     13  O   UNL     1       1.827   6.375  -0.844  0.00  0.00    -0.268 OA
ATOM     14  H   UNL     1       0.811   5.576   1.297  0.00  0.00    +0.173 HD
ENDBRANCH   1   6
BRANCH   3  15
ATOM     15  O   UNL     1      -1.802   0.765  -0.161  0.00  0.00    -0.385 OA
ATOM     16  H   UNL     1      -2.058   0.064   0.474  0.00  0.00    +0.210 HD
ENDBRANCH   3  15
BRANCH   5  17
ATOM     17  O   UNL     1      -0.786  -1.494   0.736  0.00  0.00    -0.386 OA
ATOM     18  H   UNL     1      -0.339  -1.262   1.571  0.00  0.00    +0.210 HD
ENDBRANCH   5  17
BRANCH   4  19
ATOM     19  C   UNL     1       2.348  -1.259  -1.320  0.00  0.00    +0.206 C 
BRANCH  19  20
ATOM     20  O   UNL     1       3.706  -1.375  -0.872  0.00  0.00    -0.284 OA
BRANCH  20  21
ATOM     21  P   UNL     1       4.962  -1.768  -1.995  0.00  0.00    +0.483 P 
ATOM     22  O   UNL     1       6.087  -2.121  -2.999  0.00  0.00    -0.227 OA
BRANCH  21  23
ATOM     23  O   UNL     1       4.096  -3.134  -2.319  0.00  0.00    -0.302 OA
ATOM     24  H   UNL     1       3.806  -3.173  -3.245  0.00  0.00    +0.222 HD
ENDBRANCH  21  23
BRANCH  21  25
ATOM     25  O   UNL     1       5.760  -2.382  -0.710  0.00  0.00    -0.186 OA
BRANCH  25  26
ATOM     26  P   UNL     1       6.745  -1.494   0.151  0.00  0.00    +0.481 P 
ATOM     27  O   UNL     1       7.005  -0.091  -0.270  0.00  0.00    -0.227 OA
BRANCH  26  28
ATOM     28  O   UNL     1       6.064  -1.603   1.597  0.00  0.00    -0.302 OA
ATOM     29  H   UNL     1       5.187  -1.176   1.604  0.00  0.00    +0.222 HD
ENDBRANCH  26  28
BRANCH  26  30
ATOM     30  O   UNL     1       8.014  -2.427   0.407  0.00  0.00    -0.302 OA
ATOM     31  H   UNL     1       8.460  -2.204   1.242  0.00  0.00    +0.222 HD
ENDBRANCH  26  30
ENDBRANCH  25  26
ENDBRANCH  21  25
ENDBRANCH  20  21
ENDBRANCH  19  20
ENDBRANCH   4  19
TORSDOF 11
