REMARK  Name = 
REMARK  7 active torsions:
REMARK  status: ('A' for Active; 'I' for Inactive)
REMARK    1  A    between atoms: CA_1  and  CB_2
REMARK    2  A    between atoms: CA_1  and  C_3
REMARK    3  A    between atoms: CA_1  and  N_4
REMARK    4  A    between atoms: CB_2  and  CG_5
REMARK    5  A    between atoms: C_3  and  O_6
REMARK    6  A    between atoms: CG_5  and  CD1_8
REMARK    7  A    between atoms: CG_5  and  CD2_9
REMARK                            x       y       z     vdW  Elec       q    Type
REMARK                         _______ _______ _______ _____ _____    ______ ____
ROOT
ATOM      1  CA  LEU A   1       0.988  -0.141  -0.091  0.00  0.00    +0.161 C 
ENDROOT
BRANCH   1   2
ATOM      2  N   LEU A   1       2.450  -0.264   0.042  0.00  0.00    -0.318 NA
ATOM      3  H1  LEU A   1       2.985   0.337  -0.579  0.00  0.00    +0.119 HD
ATOM      4  H2  LEU A   1       2.785  -1.222   0.114  0.00  0.00    +0.119 HD
ENDBRANCH   1   2
BRANCH   1   5
ATOM      5  C   LEU A   1       0.466  -0.755  -1.405  0.00  0.00    +0.322 C 
ATOM      6  OXT LEU A   1      -0.716  -0.816  -1.714  0.00  0.00    -0.249 OA
BRANCH   5   7
ATOM      7  O   LEU A   1       1.444  -1.233  -2.210  0.00  0.00    -0.480 OA
ATOM      8  H   LEU A   1       2.313  -1.084  -1.795  0.00  0.00    +0.295 HD
ENDBRANCH   5   7
ENDBRANCH   1   5
BRANCH   1   9
ATOM      9  CB  LEU A   1       0.550   1.333  -0.007  0.00  0.00    +0.033 C 
BRANCH   9  10
ATOM     10  CG  LEU A   1       0.989   2.079   1.271  0.00  0.00    -0.015 C 
ATOM     11  CD1 LEU A   1       0.523   3.537   1.221  0.00  0.00    +0.007 C 
ATOM     12  CD2 LEU A   1       0.453   1.413   2.541  0.00  0.00    +0.007 C 
ENDBRANCH   9  10
ENDBRANCH   1   9
TORSDOF 5
