REMARK  Name = 
REMARK  3 active torsions:
REMARK  status: ('A' for Active; 'I' for Inactive)
REMARK    1  A    between atoms: C_1  and  C_2
REMARK    2  A    between atoms: C_1  and  C_3
REMARK    3  A    between atoms: C_2  and  O_4
REMARK                            x       y       z     vdW  Elec       q    Type
REMARK                         _______ _______ _______ _____ _____    ______ ____
ROOT
ATOM      1  C   UNL     1       0.442  -1.216  -0.686  0.00  0.00    +0.312 C 
ATOM      2  O   UNL     1      -0.770  -1.373  -0.782  0.00  0.00    -0.251 OA
ENDROOT
BRANCH   1   3
ATOM      3  O   UNL     1       1.305  -2.098  -1.229  0.00  0.00    -0.480 OA
ATOM      4  H   UNL     1       2.259  -1.879  -1.094  0.00  0.00    +0.295 HD
ENDBRANCH   1   3
BRANCH   1   5
ATOM      5  C   UNL     1       1.018  -0.037   0.040  0.00  0.00    +0.191 C 
BRANCH   5   6
ATOM      6  C   UNL     1       2.506   0.079   0.111  0.00  0.00    +0.234 C 
ATOM      7  O   UNL     1       3.271  -0.740  -0.393  0.00  0.00    -0.300 OA
ENDBRANCH   5   6
ENDBRANCH   1   5
TORSDOF 3
