REMARK  Name = 
REMARK  4 active torsions:
REMARK  status: ('A' for Active; 'I' for Inactive)
REMARK    1  A    between atoms: C_1  and  C_2
REMARK    2  A    between atoms: C_1  and  N_3
REMARK    3  A    between atoms: C_2  and  O_5
REMARK    4  A    between atoms: N_3  and  C_6
REMARK                            x       y       z     vdW  Elec       q    Type
REMARK                         _______ _______ _______ _____ _____    ______ ____
ROOT
ATOM      1  C   UNL     1       0.948  -0.053  -0.085  0.00  0.00    +0.202 C 
ENDROOT
BRANCH   1   2
ATOM      2  N   UNL     1       2.415  -0.194  -0.118  0.00  0.00    -0.310 NA
ATOM      3  C   UNL     1       2.885  -0.757   1.148  0.00  0.00    +0.101 C 
ATOM      4  H   UNL     1       2.814   0.742  -0.210  0.00  0.00    +0.122 HD
ENDBRANCH   1   2
BRANCH   1   5
ATOM      5  C   UNL     1       0.465   0.555  -1.404  0.00  0.00    +0.319 C 
ATOM      6  O   UNL     1      -0.235   1.550  -1.489  0.00  0.00    -0.250 OA
BRANCH   5   7
ATOM      7  O   UNL     1       0.892  -0.153  -2.477  0.00  0.00    -0.480 OA
ATOM      8  H   UNL     1       1.508  -0.860  -2.178  0.00  0.00    +0.295 HD
ENDBRANCH   5   7
ENDBRANCH   1   5
TORSDOF 3
