REMARK  Name = 
REMARK  23 active torsions:
REMARK  status: ('A' for Active; 'I' for Inactive)
REMARK    1  A    between atoms: N_7  and  C_19
REMARK    2  A    between atoms: C_12  and  C_18
REMARK    3  A    between atoms: C_13  and  C_17
REMARK    4  A    between atoms: C_19  and  C_20
REMARK    5  A    between atoms: C_20  and  C_21
REMARK    6  A    between atoms: C_20  and  O_25
REMARK    7  A    between atoms: C_21  and  C_22
REMARK    8  A    between atoms: C_21  and  O_27
REMARK    9  A    between atoms: C_22  and  C_23
REMARK   10  A    between atoms: C_22  and  O_26
REMARK   11  A    between atoms: C_23  and  O_24
REMARK   12  A    between atoms: O_24  and  P_28
REMARK   13  A    between atoms: P_28  and  O_29
REMARK   14  A    between atoms: P_28  and  O_31
REMARK   15  A    between atoms: O_29  and  P_32
REMARK   16  A    between atoms: P_32  and  O_33
REMARK   17  A    between atoms: P_32  and  O_35
REMARK   18  A    between atoms: O_33  and  C_37
REMARK   19  A    between atoms: C_36  and  C_37
REMARK   20  A    between atoms: C_38  and  O_42
REMARK   21  A    between atoms: C_39  and  O_43
REMARK   22  A    between atoms: C_40  and  N_50
REMARK   23  A    between atoms: C_49  and  N_53
REMARK                            x       y       z     vdW  Elec       q    Type
REMARK                         _______ _______ _______ _____ _____    ______ ____
ROOT
ATOM      1  P   UNL     1      -2.677   0.880   2.508  0.00  0.00    +0.483 P 
ATOM      2  O   UNL     1      -2.724   0.714   0.994  0.00  0.00    -0.227 OA
ENDROOT
BRANCH   1   3
ATOM      3  O   UNL     1      -1.045   0.305   2.536  0.00  0.00    -0.302 OA
ATOM      4  H   UNL     1      -0.528   0.731   3.242  0.00  0.00    +0.222 HD
ENDBRANCH   1   3
BRANCH   1   5
ATOM      5  O   UNL     1      -3.172  -0.504   3.171  0.00  0.00    -0.186 OA
BRANCH   5   6
ATOM      6  P   UNL     1      -2.883  -1.033   4.631  0.00  0.00    +0.483 P 
ATOM      7  O   UNL     1      -2.211  -2.353   4.781  0.00  0.00    -0.227 OA
BRANCH   6   8
ATOM      8  O   UNL     1      -2.066   0.152   5.346  0.00  0.00    -0.302 OA
ATOM      9  H   UNL     1      -1.828  -0.155   6.247  0.00  0.00    +0.222 HD
ENDBRANCH   6   8
BRANCH   6  10
ATOM     10  O   UNL     1      -4.281  -0.893   5.407  0.00  0.00    -0.284 OA
BRANCH  10  11
ATOM     11  C   UNL     1      -5.454  -1.306   4.725  0.00  0.00    +0.206 C 
BRANCH  11  12
ATOM     12  C   UNL     1      -6.635  -1.281   5.687  0.00  0.00    +0.178 C 
ATOM     13  C   UNL     1      -6.697   0.007   6.515  0.00  0.00    +0.178 C 
ATOM     14  C   UNL     1      -6.220  -0.408   7.916  0.00  0.00    +0.195 C 
ATOM     15  C   UNL     1      -6.707  -1.853   7.952  0.00  0.00    +0.253 C 
ATOM     16  O   UNL     1      -6.523  -2.377   6.619  0.00  0.00    -0.346 OA
BRANCH  15  23
ATOM     17  N   UNL     1      -3.689  -3.652  11.904  0.00  0.00    -0.219 NA
ATOM     18  C   UNL     1      -3.376  -2.697  10.992  0.00  0.00    +0.225 A 
ATOM     19  N   UNL     1      -4.120  -2.204   9.961  0.00  0.00    -0.216 NA
ATOM     20  C   UNL     1      -5.264  -2.904   9.837  0.00  0.00    +0.167 A 
ATOM     21  C   UNL     1      -5.669  -3.949  10.666  0.00  0.00    +0.147 A 
ATOM     22  C   UNL     1      -4.884  -4.259  11.784  0.00  0.00    +0.147 A 
ATOM     23  N   UNL     1      -6.258  -2.843   8.897  0.00  0.00    -0.286 N 
ATOM     24  C   UNL     1      -6.969  -4.024   9.017  0.00  0.00    +0.203 A 
ATOM     25  N   UNL     1      -6.769  -4.605  10.171  0.00  0.00    -0.231 NA
BRANCH  22  26
ATOM     26  N   UNL     1      -5.273  -5.254  12.682  0.00  0.00    -0.341 N 
ATOM     27  H   UNL     1      -6.086  -5.756  12.328  0.00  0.00    +0.144 HD
ATOM     28  H   UNL     1      -4.490  -5.833  12.951  0.00  0.00    +0.144 HD
ENDBRANCH  22  26
ENDBRANCH  15  23
BRANCH  14  29
ATOM     29  O   UNL     1      -6.822   0.427   8.898  0.00  0.00    -0.385 OA
ATOM     30  H   UNL     1      -7.462   1.007   8.428  0.00  0.00    +0.210 HD
ENDBRANCH  14  29
BRANCH  13  31
ATOM     31  O   UNL     1      -8.046   0.512   6.605  0.00  0.00    -0.386 OA
ATOM     32  H   UNL     1      -8.680  -0.229   6.598  0.00  0.00    +0.210 HD
ENDBRANCH  13  31
ENDBRANCH  11  12
ENDBRANCH  10  11
ENDBRANCH   6  10
ENDBRANCH   5   6
ENDBRANCH   1   5
BRANCH   1  33
ATOM     33  O   UNL     1      -4.308   1.454   2.479  0.00  0.00    -0.284 OA
BRANCH  33  34
ATOM     34  C   UNL     1      -4.381   2.874   2.563  0.00  0.00    +0.206 C 
BRANCH  34  35
ATOM     35  C   UNL     1      -3.654   3.577   1.401  0.00  0.00    +0.172 C 
BRANCH  35  36
ATOM     36  O   UNL     1      -2.247   3.340   1.519  0.00  0.00    -0.387 OA
ATOM     37  H   UNL     1      -2.044   2.574   0.930  0.00  0.00    +0.210 HD
ENDBRANCH  35  36
BRANCH  35  38
ATOM     38  C   UNL     1      -4.206   3.183   0.010  0.00  0.00    +0.175 C 
BRANCH  38  39
ATOM     39  O   UNL     1      -5.607   3.511  -0.022  0.00  0.00    -0.387 OA
ATOM     40  H   UNL     1      -5.703   4.458   0.178  0.00  0.00    +0.210 HD
ENDBRANCH  38  39
BRANCH  38  41
ATOM     41  C   UNL     1      -3.462   3.850  -1.180  0.00  0.00    +0.165 C 
BRANCH  41  42
ATOM     42  O   UNL     1      -3.550   5.287  -1.019  0.00  0.00    -0.387 OA
ATOM     43  H   UNL     1      -2.979   5.553  -0.278  0.00  0.00    +0.210 HD
ENDBRANCH  41  42
BRANCH  41  44
ATOM     44  C   UNL     1      -1.964   3.442  -1.407  0.00  0.00    +0.158 C 
BRANCH  44  51
ATOM     45  N   UNL     1      -4.202  -0.790  -3.069  0.00  0.00    -0.272 N 
ATOM     46  C   UNL     1      -4.262   0.527  -3.422  0.00  0.00    +0.351 A 
ATOM     47  N   UNL     1      -3.431   1.417  -2.823  0.00  0.00    -0.173 NA
ATOM     48  C   UNL     1      -2.457   1.073  -2.036  0.00  0.00    +0.170 A 
ATOM     49  C   UNL     1      -2.197  -0.406  -1.840  0.00  0.00    +0.171 A 
ATOM     50  C   UNL     1      -3.207  -1.386  -2.361  0.00  0.00    +0.282 A 
ATOM     51  N   UNL     1      -1.644   1.995  -1.371  0.00  0.00    -0.320 N 
ATOM     52  C   UNL     1      -0.475   1.498  -0.729  0.00  0.00    +0.069 A 
ATOM     53  C   UNL     1      -0.252   0.097  -0.681  0.00  0.00    +0.089 A 
ATOM     54  N   UNL     1      -1.123  -0.844  -1.262  0.00  0.00    -0.237 NA
ATOM     55  C   UNL     1       0.451   2.308  -0.046  0.00  0.00    +0.031 A 
ATOM     56  C   UNL     1       1.514   1.777   0.721  0.00  0.00    -0.045 A 
ATOM     57  C   UNL     1       1.710   0.389   0.763  0.00  0.00    -0.045 A 
ATOM     58  C   UNL     1       0.820  -0.431   0.055  0.00  0.00    +0.033 A 
ATOM     59  O   UNL     1      -3.146  -2.589  -2.178  0.00  0.00    -0.265 OA
ATOM     60  O   UNL     1      -5.078   0.883  -4.269  0.00  0.00    -0.245 OA
ATOM     61  C   UNL     1       2.812  -0.276   1.542  0.00  0.00    +0.044 C 
ATOM     62  C   UNL     1       2.396   2.725   1.490  0.00  0.00    +0.044 C 
ATOM     63  H   UNL     1      -4.859  -1.399  -3.544  0.00  0.00    +0.174 HD
ENDBRANCH  44  51
ENDBRANCH  41  44
ENDBRANCH  38  41
ENDBRANCH  35  38
ENDBRANCH  34  35
ENDBRANCH  33  34
ENDBRANCH   1  33
TORSDOF 21
