REMARK  Name = 
REMARK  4 active torsions:
REMARK  status: ('A' for Active; 'I' for Inactive)
REMARK    1  A    between atoms: C_1  and  C_2
REMARK    2  A    between atoms: C_1  and  C_3
REMARK    3  A    between atoms: C_2  and  O_4
REMARK    4  A    between atoms: C_3  and  C_6
REMARK                            x       y       z     vdW  Elec       q    Type
REMARK                         _______ _______ _______ _____ _____    ______ ____
ROOT
ATOM      1  C   UNL     1       1.006   0.034  -0.053  0.00  0.00    +0.127 C 
ENDROOT
BRANCH   1   2
ATOM      2  C   UNL     1       0.500   0.372   1.323  0.00  0.00    +0.305 C 
ATOM      3  O   UNL     1       1.206   0.608   2.291  0.00  0.00    -0.251 OA
BRANCH   2   4
ATOM      4  O   UNL     1      -0.851   0.389   1.388  0.00  0.00    -0.481 OA
ATOM      5  H   UNL     1      -1.292   0.183   0.541  0.00  0.00    +0.295 HD
ENDBRANCH   2   4
ENDBRANCH   1   2
BRANCH   1   6
ATOM      6  C   UNL     1       2.528   0.021  -0.108  0.00  0.00    +0.082 C 
BRANCH   6   7
ATOM      7  C   UNL     1       3.021  -0.317  -1.491  0.00  0.00    +0.223 C 
ATOM      8  O   UNL     1       2.283  -0.548  -2.443  0.00  0.00    -0.301 OA
ENDBRANCH   6   7
ENDBRANCH   1   6
TORSDOF 4
