REMARK  Name = 
REMARK  4 active torsions:
REMARK  status: ('A' for Active; 'I' for Inactive)
REMARK    1  A    between atoms: C_1  and  C_2
REMARK    2  A    between atoms: C_1  and  C_3
REMARK    3  A    between atoms: C_2  and  O_5
REMARK    4  A    between atoms: C_3  and  O_6
REMARK                            x       y       z     vdW  Elec       q    Type
REMARK                         _______ _______ _______ _____ _____    ______ ____
ROOT
ATOM      1  C   UNL     1       1.041   0.198   0.010  0.00  0.00    +0.184 C 
ATOM      2  O   UNL     1       2.248   0.457  -0.020  0.00  0.00    -0.293 OA
ENDROOT
BRANCH   1   3
ATOM      3  C   UNL     1       0.317  -0.392  -1.194  0.00  0.00    +0.232 C 
BRANCH   3   4
ATOM      4  O   UNL     1       1.201  -0.750  -2.242  0.00  0.00    -0.387 OA
ATOM      5  H   UNL     1       1.983  -0.168  -2.159  0.00  0.00    +0.210 HD
ENDBRANCH   3   4
ENDBRANCH   1   3
BRANCH   1   6
ATOM      6  C   UNL     1       0.193   0.445   1.247  0.00  0.00    +0.232 C 
BRANCH   6   7
ATOM      7  O   UNL     1       0.778   1.383   2.133  0.00  0.00    -0.387 OA
ATOM      8  H   UNL     1       1.733   1.177   2.169  0.00  0.00    +0.210 HD
ENDBRANCH   6   7
ENDBRANCH   1   6
TORSDOF 4
