REMARK  Name = 
REMARK  4 active torsions:
REMARK  status: ('A' for Active; 'I' for Inactive)
REMARK    1  A    between atoms: C_1  and  C_2
REMARK    2  A    between atoms: C_1  and  C_3
REMARK    3  A    between atoms: C_2  and  O_5
REMARK    4  A    between atoms: C_3  and  O_7
REMARK                            x       y       z     vdW  Elec       q    Type
REMARK                         _______ _______ _______ _____ _____    ______ ____
ROOT
ATOM      1  C   UNL     1       0.942  -0.146   0.009  0.00  0.00    +0.264 C 
ATOM      2  O   UNL     1       2.165  -0.214   0.056  0.00  0.00    -0.283 OA
ENDROOT
BRANCH   1   3
ATOM      3  C   UNL     1       0.200  -1.163  -0.848  0.00  0.00    +0.375 C 
ATOM      4  O   UNL     1      -1.013  -1.208  -0.916  0.00  0.00    -0.242 OA
BRANCH   3   5
ATOM      5  O   UNL     1       1.053  -1.988  -1.482  0.00  0.00    -0.475 OA
ATOM      6  H   UNL     1       1.979  -1.739  -1.252  0.00  0.00    +0.296 HD
ENDBRANCH   3   5
ENDBRANCH   1   3
BRANCH   1   7
ATOM      7  C   UNL     1       0.051   0.846   0.742  0.00  0.00    +0.242 C 
BRANCH   7   8
ATOM      8  O   UNL     1       0.722   1.830   1.509  0.00  0.00    -0.387 OA
ATOM      9  H   UNL     1       0.983   1.426   2.355  0.00  0.00    +0.210 HD
ENDBRANCH   7   8
ENDBRANCH   1   7
TORSDOF 4
