REMARK  Name = 
REMARK  17 active torsions:
REMARK  status: ('A' for Active; 'I' for Inactive)
REMARK    1  A    between atoms: C_1  and  N_2
REMARK    2  A    between atoms: C_4  and  O_9
REMARK    3  A    between atoms: C_7  and  C_13
REMARK    4  A    between atoms: C_8  and  O_14
REMARK    5  A    between atoms: C_13  and  O_16
REMARK    6  A    between atoms: O_16  and  P_18
REMARK    7  A    between atoms: P_18  and  O_19
REMARK    8  A    between atoms: P_18  and  O_20
REMARK    9  A    between atoms: O_19  and  P_22
REMARK   10  A    between atoms: P_22  and  O_23
REMARK   11  A    between atoms: P_22  and  O_24
REMARK   12  A    between atoms: O_23  and  C_26
REMARK   13  A    between atoms: C_28  and  O_31
REMARK   14  A    between atoms: C_29  and  C_33
REMARK   15  A    between atoms: C_30  and  O_34
REMARK   16  A    between atoms: C_32  and  O_35
REMARK   17  A    between atoms: C_33  and  O_36
REMARK                            x       y       z     vdW  Elec       q    Type
REMARK                         _______ _______ _______ _____ _____    ______ ____
ROOT
ATOM      1  P   UNL     1       2.555  -2.232  -3.870  0.00  0.00    +0.483 P 
ATOM      2  O   UNL     1       3.245  -2.331  -5.252  0.00  0.00    -0.227 OA
ENDROOT
BRANCH   1   3
ATOM      3  O   UNL     1       1.156  -2.924  -4.327  0.00  0.00    -0.302 OA
ATOM      4  H   UNL     1       0.511  -2.281  -4.682  0.00  0.00    +0.222 HD
ENDBRANCH   1   3
BRANCH   1   5
ATOM      5  O   UNL     1       3.442  -3.616  -3.329  0.00  0.00    -0.186 OA
BRANCH   5   6
ATOM      6  P   UNL     1       2.510  -4.474  -2.151  0.00  0.00    +0.486 P 
ATOM      7  O   UNL     1       1.675  -5.243  -1.098  0.00  0.00    -0.227 OA
BRANCH   6   8
ATOM      8  O   UNL     1       3.951  -5.094  -1.653  0.00  0.00    -0.302 OA
ATOM      9  H   UNL     1       4.534  -4.473  -1.192  0.00  0.00    +0.222 HD
ENDBRANCH   6   8
BRANCH   6  10
ATOM     10  O   UNL     1       2.281  -5.560  -3.380  0.00  0.00    -0.254 OA
BRANCH  10  11
ATOM     11  C   UNL     1       1.089  -6.322  -3.514  0.00  0.00    +0.293 C 
ATOM     12  O   UNL     1       0.072  -5.664  -4.273  0.00  0.00    -0.340 OA
ATOM     13  C   UNL     1       1.470  -7.676  -4.150  0.00  0.00    +0.202 C 
ATOM     14  C   UNL     1       0.317  -5.518  -5.682  0.00  0.00    +0.178 C 
ATOM     15  C   UNL     1       1.995  -7.403  -5.566  0.00  0.00    +0.179 C 
ATOM     16  C   UNL     1       0.871  -6.761  -6.379  0.00  0.00    +0.177 C 
BRANCH  16  17
ATOM     17  O   UNL     1       1.360  -6.439  -7.691  0.00  0.00    -0.386 OA
ATOM     18  H   UNL     1       2.001  -5.708  -7.607  0.00  0.00    +0.210 HD
ENDBRANCH  16  17
BRANCH  15  19
ATOM     19  O   UNL     1       2.396  -8.605  -6.236  0.00  0.00    -0.386 OA
ATOM     20  H   UNL     1       2.514  -8.357  -7.174  0.00  0.00    +0.210 HD
ENDBRANCH  15  19
BRANCH  13  21
ATOM     21  O   UNL     1       2.427  -8.371  -3.344  0.00  0.00    -0.384 OA
ATOM     22  H   UNL     1       3.005  -7.701  -2.935  0.00  0.00    +0.210 HD
ENDBRANCH  13  21
BRANCH  14  23
ATOM     23  C   UNL     1      -1.037  -5.123  -6.297  0.00  0.00    +0.190 C 
BRANCH  23  24
ATOM     24  O   UNL     1      -1.410  -3.830  -5.803  0.00  0.00    -0.392 OA
ATOM     25  H   UNL     1      -1.199  -3.870  -4.851  0.00  0.00    +0.210 HD
ENDBRANCH  23  24
ENDBRANCH  14  23
ENDBRANCH  10  11
ENDBRANCH   6  10
ENDBRANCH   5   6
ENDBRANCH   1   5
BRANCH   1  26
ATOM     26  O   UNL     1       1.784  -2.123  -2.325  0.00  0.00    -0.284 OA
BRANCH  26  27
ATOM     27  C   UNL     1       2.511  -1.752  -1.145  0.00  0.00    +0.206 C 
BRANCH  27  31
ATOM     28  C   UNL     1       5.500  -0.842   0.047  0.00  0.00    +0.255 C 
ATOM     29  O   UNL     1       4.081  -0.558   0.202  0.00  0.00    -0.346 OA
ATOM     30  C   UNL     1       5.668  -1.330  -1.398  0.00  0.00    +0.195 C 
ATOM     31  C   UNL     1       3.440  -0.533  -1.113  0.00  0.00    +0.178 C 
ATOM     32  C   UNL     1       4.598  -0.515  -2.101  0.00  0.00    +0.178 C 
BRANCH  28  33
ATOM     33  N   UNL     1       5.981  -1.798   1.051  0.00  0.00    -0.271 N 
ATOM     34  C   UNL     1       7.340  -1.719   1.373  0.00  0.00    +0.331 A 
ATOM     35  C   UNL     1       5.167  -2.754   1.630  0.00  0.00    +0.098 A 
ATOM     36  N   UNL     1       7.800  -2.649   2.269  0.00  0.00    -0.275 N 
ATOM     37  O   UNL     1       8.102  -0.868   0.919  0.00  0.00    -0.246 OA
ATOM     38  C   UNL     1       5.628  -3.632   2.526  0.00  0.00    +0.088 A 
ATOM     39  C   UNL     1       7.045  -3.576   2.921  0.00  0.00    +0.254 A 
ATOM     40  O   UNL     1       7.489  -4.323   3.779  0.00  0.00    -0.268 OA
ATOM     41  H   UNL     1       8.773  -2.579   2.529  0.00  0.00    +0.173 HD
ENDBRANCH  28  33
BRANCH  32  42
ATOM     42  O   UNL     1       5.070   0.821  -2.320  0.00  0.00    -0.386 OA
ATOM     43  H   UNL     1       4.843   1.389  -1.559  0.00  0.00    +0.210 HD
ENDBRANCH  32  42
BRANCH  30  44
ATOM     44  O   UNL     1       6.940  -1.123  -1.983  0.00  0.00    -0.385 OA
ATOM     45  H   UNL     1       6.958  -0.210  -2.336  0.00  0.00    +0.210 HD
ENDBRANCH  30  44
ENDBRANCH  27  31
ENDBRANCH  26  27
ENDBRANCH   1  26
TORSDOF 17
