REMARK  Name = 
REMARK  4 active torsions:
REMARK  status: ('A' for Active; 'I' for Inactive)
REMARK    1  A    between atoms: C_1  and  C_2
REMARK    2  A    between atoms: C_1  and  C_3
REMARK    3  A    between atoms: C_2  and  O_5
REMARK    4  A    between atoms: C_3  and  O_7
REMARK                            x       y       z     vdW  Elec       q    Type
REMARK                         _______ _______ _______ _____ _____    ______ ____
ROOT
ATOM      1  C   UNL     1       0.877  -0.050  -0.074  0.00  0.00    +0.264 C 
ATOM      2  O   UNL     1       2.099  -0.163  -0.126  0.00  0.00    -0.283 OA
ENDROOT
BRANCH   1   3
ATOM      3  C   UNL     1       0.153   0.440  -1.316  0.00  0.00    +0.375 C 
ATOM      4  O   UNL     1      -1.058   0.511  -1.393  0.00  0.00    -0.242 OA
BRANCH   3   5
ATOM      5  O   UNL     1       1.022   0.756  -2.293  0.00  0.00    -0.475 OA
ATOM      6  H   UNL     1       1.944   0.598  -1.975  0.00  0.00    +0.296 HD
ENDBRANCH   3   5
ENDBRANCH   1   3
BRANCH   1   7
ATOM      7  C   UNL     1      -0.016  -0.380   1.111  0.00  0.00    +0.242 C 
BRANCH   7   8
ATOM      8  O   UNL     1       0.669  -0.776   2.287  0.00  0.00    -0.387 OA
ATOM      9  H   UNL     1       1.070  -1.647   2.121  0.00  0.00    +0.210 HD
ENDBRANCH   7   8
ENDBRANCH   1   7
TORSDOF 4
