REMARK  Name = 
REMARK  11 active torsions:
REMARK  status: ('A' for Active; 'I' for Inactive)
REMARK    1  A    between atoms: C_1  and  N_2
REMARK    2  A    between atoms: C_4  and  O_9
REMARK    3  A    between atoms: C_7  and  C_13
REMARK    4  A    between atoms: C_8  and  O_14
REMARK    5  A    between atoms: C_13  and  O_16
REMARK    6  A    between atoms: O_16  and  P_18
REMARK    7  A    between atoms: P_18  and  O_19
REMARK    8  A    between atoms: P_18  and  O_20
REMARK    9  A    between atoms: O_19  and  P_22
REMARK   10  A    between atoms: P_22  and  O_23
REMARK   11  A    between atoms: P_22  and  O_24
REMARK                            x       y       z     vdW  Elec       q    Type
REMARK                         _______ _______ _______ _____ _____    ______ ____
ROOT
ATOM      1  C   UNL     1       0.465   1.321   0.392  0.00  0.00    +0.255 C 
ATOM      2  O   UNL     1       1.670   0.531   0.336  0.00  0.00    -0.346 OA
ATOM      3  C   UNL     1      -0.569   0.628  -0.508  0.00  0.00    +0.195 C 
ATOM      4  C   UNL     1       1.361  -0.753  -0.243  0.00  0.00    +0.178 C 
ATOM      5  C   UNL     1      -0.165  -0.831  -0.353  0.00  0.00    +0.178 C 
ENDROOT
BRANCH   1   6
ATOM      6  N   UNL     1       0.792   2.690   0.017  0.00  0.00    -0.271 N 
ATOM      7  C   UNL     1       0.560   3.693   0.954  0.00  0.00    +0.331 A 
ATOM      8  C   UNL     1       1.370   2.975  -1.208  0.00  0.00    +0.098 A 
ATOM      9  N   UNL     1       0.921   4.958   0.573  0.00  0.00    -0.275 N 
ATOM     10  O   UNL     1       0.075   3.501   2.069  0.00  0.00    -0.246 OA
ATOM     11  C   UNL     1       1.724   4.214  -1.561  0.00  0.00    +0.088 A 
ATOM     12  C   UNL     1       1.504   5.308  -0.604  0.00  0.00    +0.254 A 
ATOM     13  O   UNL     1       1.844   6.455  -0.873  0.00  0.00    -0.268 OA
ATOM     14  H   UNL     1       0.773   5.688   1.250  0.00  0.00    +0.173 HD
ENDBRANCH   1   6
BRANCH   3  15
ATOM     15  O   UNL     1      -1.919   0.848  -0.114  0.00  0.00    -0.385 OA
ATOM     16  H   UNL     1      -2.122   0.170   0.564  0.00  0.00    +0.210 HD
ENDBRANCH   3  15
BRANCH   5  17
ATOM     17  O   UNL     1      -0.771  -1.344   0.847  0.00  0.00    -0.386 OA
ATOM     18  H   UNL     1      -0.157  -1.223   1.596  0.00  0.00    +0.210 HD
ENDBRANCH   5  17
BRANCH   4  19
ATOM     19  C   UNL     1       2.047  -0.859  -1.604  0.00  0.00    +0.206 C 
BRANCH  19  20
ATOM     20  O   UNL     1       3.474  -0.852  -1.453  0.00  0.00    -0.284 OA
BRANCH  20  21
ATOM     21  P   UNL     1       4.367  -0.954  -2.931  0.00  0.00    +0.483 P 
ATOM     22  O   UNL     1       5.167  -1.046  -4.254  0.00  0.00    -0.227 OA
BRANCH  21  23
ATOM     23  O   UNL     1       3.451  -2.250  -3.355  0.00  0.00    -0.302 OA
ATOM     24  H   UNL     1       3.727  -2.489  -4.264  0.00  0.00    +0.222 HD
ENDBRANCH  21  23
BRANCH  21  25
ATOM     25  O   UNL     1       5.513  -1.746  -2.070  0.00  0.00    -0.186 OA
BRANCH  25  26
ATOM     26  P   UNL     1       6.906  -1.001  -1.865  0.00  0.00    +0.481 P 
ATOM     27  O   UNL     1       6.898   0.483  -1.954  0.00  0.00    -0.227 OA
BRANCH  26  28
ATOM     28  O   UNL     1       7.381  -1.500  -0.418  0.00  0.00    -0.302 OA
ATOM     29  H   UNL     1       7.060  -0.886   0.271  0.00  0.00    +0.222 HD
ENDBRANCH  26  28
BRANCH  26  30
ATOM     30  O   UNL     1       7.957  -1.783  -2.769  0.00  0.00    -0.302 OA
ATOM     31  H   UNL     1       8.072  -2.701  -2.469  0.00  0.00    +0.222 HD
ENDBRANCH  26  30
ENDBRANCH  25  26
ENDBRANCH  21  25
ENDBRANCH  20  21
ENDBRANCH  19  20
ENDBRANCH   4  19
TORSDOF 11
