REMARK  Name = 
REMARK  3 active torsions:
REMARK  status: ('A' for Active; 'I' for Inactive)
REMARK    1  A    between atoms: C_1  and  CA_2
REMARK    2  A    between atoms: C_1  and  O_3
REMARK    3  A    between atoms: CA_2  and  N_5
REMARK                            x       y       z     vdW  Elec       q    Type
REMARK                         _______ _______ _______ _____ _____    ______ ____
ROOT
ATOM      1  C   GLY A   1       0.997  -0.015   0.127  0.00  0.00    +0.319 C 
ATOM      2  OXT GLY A   1       0.595   1.006   0.662  0.00  0.00    -0.250 OA
ENDROOT
BRANCH   1   3
ATOM      3  O   GLY A   1       2.197  -0.589   0.404  0.00  0.00    -0.480 OA
ATOM      4  H   GLY A   1       2.256  -1.390  -0.173  0.00  0.00    +0.295 HD
ENDBRANCH   1   3
BRANCH   1   5
ATOM      5  CA  GLY A   1       0.219  -0.832  -0.901  0.00  0.00    +0.199 C 
BRANCH   5   6
ATOM      6  N   GLY A   1       1.165  -1.696  -1.653  0.00  0.00    -0.321 NA
ATOM      7  H1  GLY A   1       1.702  -1.092  -2.286  0.00  0.00    +0.119 HD
ATOM      8  H2  GLY A   1       0.610  -2.282  -2.284  0.00  0.00    +0.119 HD
ENDBRANCH   5   6
ENDBRANCH   1   5
TORSDOF 3
