REMARK  Name = 
REMARK  5 active torsions:
REMARK  status: ('A' for Active; 'I' for Inactive)
REMARK    1  A    between atoms: O_1  and  C_2
REMARK    2  A    between atoms: C_2  and  C_3
REMARK    3  A    between atoms: C_3  and  C_4
REMARK    4  A    between atoms: C_4  and  C_5
REMARK    5  A    between atoms: C_5  and  O_6
REMARK                            x       y       z     vdW  Elec       q    Type
REMARK                         _______ _______ _______ _____ _____    ______ ____
ROOT
ATOM      1  C   UNL     1       3.154   1.363   0.172  0.00  0.00    +0.131 C 
ENDROOT
BRANCH   1   2
ATOM      2  C   UNL     1       2.373   0.095  -0.042  0.00  0.00    +0.305 C 
ATOM      3  O   UNL     1       1.154   0.025  -0.052  0.00  0.00    -0.251 OA
BRANCH   2   4
ATOM      4  O   UNL     1       3.162  -0.985  -0.225  0.00  0.00    -0.481 OA
ATOM      5  H   UNL     1       4.120  -0.794  -0.194  0.00  0.00    +0.295 HD
ENDBRANCH   2   4
ENDBRANCH   1   2
BRANCH   1   6
ATOM      6  C   UNL     1       2.219   2.554   0.373  0.00  0.00    +0.131 C 
BRANCH   6   7
ATOM      7  C   UNL     1       3.002   3.822   0.584  0.00  0.00    +0.305 C 
ATOM      8  O   UNL     1       4.221   3.892   0.594  0.00  0.00    -0.251 OA
BRANCH   7   9
ATOM      9  O   UNL     1       2.212   4.903   0.768  0.00  0.00    -0.481 OA
ATOM     10  H   UNL     1       1.254   4.711   0.738  0.00  0.00    +0.295 HD
ENDBRANCH   7   9
ENDBRANCH   6   7
ENDBRANCH   1   6
TORSDOF 5
