REMARK  Name = 
REMARK  13 active torsions:
REMARK  status: ('A' for Active; 'I' for Inactive)
REMARK    1  A    between atoms: N_1  and  C_2
REMARK    2  A    between atoms: C_5  and  O_11
REMARK    3  A    between atoms: C_10  and  O_15
REMARK    4  A    between atoms: C_12  and  C_16
REMARK    5  A    between atoms: O_15  and  P_19
REMARK    6  A    between atoms: C_16  and  O_20
REMARK    7  A    between atoms: P_19  and  O_21
REMARK    8  A    between atoms: P_19  and  O_22
REMARK    9  A    between atoms: O_20  and  P_24
REMARK   10  A    between atoms: P_24  and  O_25
REMARK   11  A    between atoms: P_24  and  O_26
REMARK   12  A    between atoms: O_25  and  S_28
REMARK   13  A    between atoms: S_28  and  O_29
REMARK                            x       y       z     vdW  Elec       q    Type
REMARK                         _______ _______ _______ _____ _____    ______ ____
ROOT
ATOM      1  C   UNL     1       2.087   2.453  -0.284  0.00  0.00    +0.253 C 
ATOM      2  C   UNL     1       1.556   2.838   1.101  0.00  0.00    +0.196 C 
ATOM      3  O   UNL     1       1.623   3.509  -1.175  0.00  0.00    -0.346 OA
ATOM      4  C   UNL     1       1.652   4.356   1.055  0.00  0.00    +0.194 C 
ATOM      5  C   UNL     1       1.237   4.658  -0.381  0.00  0.00    +0.179 C 
ENDROOT
BRANCH   1   6
ATOM      6  N   UNL     1       3.532   2.345  -0.390  0.00  0.00    -0.286 N 
ATOM      7  C   UNL     1       4.347   1.540   0.361  0.00  0.00    +0.167 A 
ATOM      8  C   UNL     1       4.328   2.963  -1.319  0.00  0.00    +0.203 A 
ATOM      9  C   UNL     1       5.629   1.799  -0.101  0.00  0.00    +0.147 A 
ATOM     10  N   UNL     1       3.996   0.683   1.332  0.00  0.00    -0.216 NA
ATOM     11  N   UNL     1       5.603   2.694  -1.148  0.00  0.00    -0.231 NA
ATOM     12  C   UNL     1       6.683   1.115   0.526  0.00  0.00    +0.147 A 
ATOM     13  C   UNL     1       5.086   0.064   1.841  0.00  0.00    +0.225 A 
ATOM     14  N   UNL     1       6.383   0.223   1.496  0.00  0.00    -0.219 NA
ATOM     15  N   UNL     1       8.015   1.293   0.171  0.00  0.00    -0.341 N 
ATOM     16  H   UNL     1       8.134   1.708  -0.746  0.00  0.00    +0.144 HD
ATOM     17  H   UNL     1       8.587   0.492   0.405  0.00  0.00    +0.144 HD
ENDBRANCH   1   6
BRANCH   2  18
ATOM     18  O   UNL     1       0.184   2.435   1.292  0.00  0.00    -0.385 OA
ATOM     19  H   UNL     1      -0.318   2.639   0.478  0.00  0.00    +0.210 HD
ENDBRANCH   2  18
BRANCH   4  20
ATOM     20  O   UNL     1       0.805   5.029   1.965  0.00  0.00    -0.278 OA
BRANCH  20  21
ATOM     21  P   UNL     1       1.025   4.726   3.525  0.00  0.00    +0.473 P 
ATOM     22  O   UNL     1       2.403   4.318   3.902  0.00  0.00    -0.228 OA
BRANCH  21  23
ATOM     23  O   UNL     1       0.487   6.085   4.159  0.00  0.00    -0.303 OA
ATOM     24  H   UNL     1       1.013   6.854   3.880  0.00  0.00    +0.222 HD
ENDBRANCH  21  23
BRANCH  21  25
ATOM     25  O   UNL     1      -0.146   3.691   3.837  0.00  0.00    -0.303 OA
ATOM     26  H   UNL     1      -0.047   2.851   3.344  0.00  0.00    +0.222 HD
ENDBRANCH  21  25
ENDBRANCH  20  21
ENDBRANCH   4  20
BRANCH   5  27
ATOM     27  C   UNL     1       1.864   5.943  -0.934  0.00  0.00    +0.206 C 
BRANCH  27  28
ATOM     28  O   UNL     1       3.275   5.860  -0.807  0.00  0.00    -0.283 OA
BRANCH  28  29
ATOM     29  P   UNL     1       4.193   7.029  -1.439  0.00  0.00    +0.498 P 
ATOM     30  O   UNL     1       3.435   7.967  -2.310  0.00  0.00    -0.225 OA
BRANCH  29  31
ATOM     31  O   UNL     1       5.248   6.109  -2.211  0.00  0.00    -0.301 OA
ATOM     32  H   UNL     1       4.867   5.633  -2.970  0.00  0.00    +0.222 HD
ENDBRANCH  29  31
BRANCH  29  33
ATOM     33  O   UNL     1       4.955   7.545  -0.150  0.00  0.00    -0.109 OA
BRANCH  33  34
ATOM     34  S   UNL     1       5.891   8.771  -0.576  0.00  0.00    +0.216 S 
ATOM     35  O   UNL     1       6.904   8.322  -1.510  0.00  0.00    -0.118 OA
ATOM     36  O   UNL     1       5.081   9.937  -0.809  0.00  0.00    -0.118 OA
BRANCH  34  37
ATOM     37  O   UNL     1       6.703   9.038   0.788  0.00  0.00    -0.231 OA
ATOM     38  H   UNL     1       7.484   8.449   0.796  0.00  0.00    +0.247 HD
ENDBRANCH  34  37
ENDBRANCH  33  34
ENDBRANCH  29  33
ENDBRANCH  28  29
ENDBRANCH  27  28
ENDBRANCH   5  27
TORSDOF 13
