REMARK  Name = 
REMARK  13 active torsions:
REMARK  status: ('A' for Active; 'I' for Inactive)
REMARK    1  A    between atoms: O_1  and  C_2
REMARK    2  A    between atoms: C_2  and  CA_3
REMARK    3  A    between atoms: CA_3  and  CB_4
REMARK    4  A    between atoms: CA_3  and  N_15
REMARK    5  A    between atoms: CB_4  and  CG_5
REMARK    6  A    between atoms: CG_5  and  CD_6
REMARK    7  A    between atoms: N_7  and  CA_8
REMARK    8  A    between atoms: CA_8  and  C_9
REMARK    9  A    between atoms: CA_8  and  CB_17
REMARK   10  A    between atoms: N_10  and  CA_11
REMARK   11  A    between atoms: CA_11  and  C_12
REMARK   12  A    between atoms: C_12  and  O_13
REMARK   13  A    between atoms: CB_17  and  SG_18
REMARK                            x       y       z     vdW  Elec       q    Type
REMARK                         _______ _______ _______ _____ _____    ______ ____
ROOT
ATOM      1  CD  CYS A   1       0.445  -0.393   1.453  0.00  0.00    +0.214 C 
ATOM      2  N   CYS A   1       0.620   0.788   0.795  0.00  0.00    -0.303 N 
ATOM      3  OE1 CYS A   1      -0.011  -1.384   0.878  0.00  0.00    -0.276 OA
ATOM      4  H   CYS A   1       0.734   1.636   1.345  0.00  0.00    +0.149 HD
ENDROOT
BRANCH   1   5
ATOM      5  CG  CYS A   1       0.857  -0.475   2.914  0.00  0.00    +0.098 C 
BRANCH   5   6
ATOM      6  CB  CYS A   1       0.818   0.770   3.807  0.00  0.00    +0.039 C 
BRANCH   6   7
ATOM      7  CA  CYS A   1      -0.551   1.365   4.197  0.00  0.00    +0.161 C 
BRANCH   7   8
ATOM      8  N   CYS A   1      -1.447   0.350   4.769  0.00  0.00    -0.318 NA
ATOM      9  H1  CYS A   1      -1.877  -0.244   4.062  0.00  0.00    +0.119 HD
ATOM     10  H2  CYS A   1      -2.143   0.729   5.406  0.00  0.00    +0.119 HD
ENDBRANCH   7   8
BRANCH   7  11
ATOM     11  C   CYS A   1      -1.200   2.165   3.058  0.00  0.00    +0.322 C 
ATOM     12  OXT CYS A   1      -0.556   2.750   2.192  0.00  0.00    -0.249 OA
BRANCH  11  13
ATOM     13  O   CYS A   1      -2.545   2.220   3.111  0.00  0.00    -0.480 OA
ATOM     14  H   CYS A   1      -2.909   1.745   3.879  0.00  0.00    +0.295 HD
ENDBRANCH  11  13
ENDBRANCH   7  11
ENDBRANCH   6   7
ENDBRANCH   5   6
ENDBRANCH   1   5
BRANCH   2  15
ATOM     15  CA  CYS A   1       0.300   1.037  -0.622  0.00  0.00    +0.168 C 
BRANCH  15  16
ATOM     16  C   CYS A   1      -1.219   0.992  -0.920  0.00  0.00    +0.235 C 
ATOM     17  N   GLY A   2      -1.946  -0.009  -0.329  0.00  0.00    -0.303 N 
ATOM     18  O   CYS A   1      -1.762   1.760  -1.714  0.00  0.00    -0.274 OA
ATOM     19  H   GLY A   2      -1.395  -0.775   0.063  0.00  0.00    +0.149 HD
BRANCH  17  20
ATOM     20  CA  GLY A   2      -3.319  -0.344  -0.687  0.00  0.00    +0.224 C 
BRANCH  20  21
ATOM     21  C   GLY A   2      -4.407   0.658  -0.296  0.00  0.00    +0.322 C 
ATOM     22  OXT GLY A   2      -5.540   0.316   0.021  0.00  0.00    -0.249 OA
BRANCH  21  23
ATOM     23  O   GLY A   2      -4.081   1.959  -0.447  0.00  0.00    -0.480 OA
ATOM     24  H   GLY A   2      -3.204   2.081  -0.883  0.00  0.00    +0.295 HD
ENDBRANCH  21  23
ENDBRANCH  20  21
ENDBRANCH  17  20
ENDBRANCH  15  16
BRANCH  15  25
ATOM     25  CB  CYS A   1       1.050   0.167  -1.640  0.00  0.00    +0.097 C 
BRANCH  25  26
ATOM     26  SG  CYS A   1       2.868   0.242  -1.463  0.00  0.00    -0.176 S 
ATOM     27  HG  CYS A   1       3.052   1.397  -2.121  0.00  0.00    +0.102 HD
ENDBRANCH  25  26
ENDBRANCH  15  25
ENDBRANCH   2  15
TORSDOF 13
