REMARK  Name = 
REMARK  8 active torsions:
REMARK  status: ('A' for Active; 'I' for Inactive)
REMARK    1  A    between atoms: P_1  and  O_2
REMARK    2  A    between atoms: P_1  and  O_3
REMARK    3  A    between atoms: P_1  and  O_4
REMARK    4  A    between atoms: O_2  and  C_6
REMARK    5  A    between atoms: C_6  and  C_7
REMARK    6  A    between atoms: C_7  and  C_8
REMARK    7  A    between atoms: C_7  and  O_9
REMARK    8  A    between atoms: C_8  and  O_10
REMARK                            x       y       z     vdW  Elec       q    Type
REMARK                         _______ _______ _______ _____ _____    ______ ____
ROOT
ATOM      1  C   UNL     1      -0.255   4.111  -1.606  0.00  0.00    +0.215 C 
ENDROOT
BRANCH   1   2
ATOM      2  O   UNL     1       0.035   4.202  -3.010  0.00  0.00    -0.284 OA
BRANCH   2   3
ATOM      3  P   UNL     1      -1.333   4.277  -3.936  0.00  0.00    +0.472 P 
ATOM      4  O   UNL     1      -1.502   2.740  -4.010  0.00  0.00    -0.228 OA
BRANCH   3   5
ATOM      5  O   UNL     1      -0.661   4.416  -5.413  0.00  0.00    -0.303 OA
ATOM      6  H   UNL     1      -0.745   3.541  -5.844  0.00  0.00    +0.222 HD
ENDBRANCH   3   5
BRANCH   3   7
ATOM      7  O   UNL     1      -1.145   5.995  -3.853  0.00  0.00    -0.303 OA
ATOM      8  H   UNL     1      -0.312   6.174  -4.333  0.00  0.00    +0.222 HD
ENDBRANCH   3   7
ENDBRANCH   2   3
ENDBRANCH   1   2
BRANCH   1   9
ATOM      9  C   UNL     1       1.024   4.060  -0.788  0.00  0.00    +0.249 C 
BRANCH   9  10
ATOM     10  C   UNL     1       1.809   5.372  -0.860  0.00  0.00    +0.336 C 
ATOM     11  O   UNL     1       1.323   6.485  -0.887  0.00  0.00    -0.248 OA
BRANCH  10  12
ATOM     12  O   UNL     1       3.147   5.138  -0.835  0.00  0.00    -0.479 OA
ATOM     13  H   UNL     1       3.291   4.162  -0.814  0.00  0.00    +0.295 HD
ENDBRANCH  10  12
ENDBRANCH   9  10
BRANCH   9  14
ATOM     14  O   UNL     1       1.879   2.993  -1.236  0.00  0.00    -0.379 OA
ATOM     15  H   UNL     1       1.738   2.934  -2.205  0.00  0.00    +0.211 HD
ENDBRANCH   9  14
ENDBRANCH   1   9
TORSDOF 8
