REMARK  Name = 
REMARK  6 active torsions:
REMARK  status: ('A' for Active; 'I' for Inactive)
REMARK    1  A    between atoms: C_1  and  C_2
REMARK    2  A    between atoms: C_1  and  C_3
REMARK    3  A    between atoms: C_2  and  C_5
REMARK    4  A    between atoms: C_3  and  O_6
REMARK    5  A    between atoms: C_5  and  C_8
REMARK    6  A    between atoms: C_5  and  C_9
REMARK                            x       y       z     vdW  Elec       q    Type
REMARK                         _______ _______ _______ _____ _____    ______ ____
ROOT
ATOM      1  C   UNL     1       1.081   0.085   0.147  0.00  0.00    +0.239 C 
ATOM      2  O   UNL     1       2.185   0.472  -0.222  0.00  0.00    -0.285 OA
ENDROOT
BRANCH   1   3
ATOM      3  C   UNL     1       0.327   0.971   1.138  0.00  0.00    +0.373 C 
ATOM      4  O   UNL     1      -0.786   0.721   1.555  0.00  0.00    -0.242 OA
BRANCH   3   5
ATOM      5  O   UNL     1       1.072   2.041   1.474  0.00  0.00    -0.475 OA
ATOM      6  H   UNL     1       1.928   2.002   0.986  0.00  0.00    +0.295 HD
ENDBRANCH   3   5
ENDBRANCH   1   3
BRANCH   1   7
ATOM      7  C   UNL     1       0.374  -1.163  -0.327  0.00  0.00    +0.089 C 
BRANCH   7   8
ATOM      8  C   UNL     1       1.333  -2.302  -0.706  0.00  0.00    -0.010 C 
ATOM      9  C   UNL     1       2.197  -2.743   0.479  0.00  0.00    +0.007 C 
ATOM     10  C   UNL     1       0.531  -3.500  -1.222  0.00  0.00    +0.007 C 
ENDBRANCH   7   8
ENDBRANCH   1   7
TORSDOF 4
