REMARK  Name = 
REMARK  11 active torsions:
REMARK  status: ('A' for Active; 'I' for Inactive)
REMARK    1  A    between atoms: C_1  and  C_2
REMARK    2  A    between atoms: C_1  and  C_3
REMARK    3  A    between atoms: C_1  and  O_4
REMARK    4  A    between atoms: C_2  and  C_5
REMARK    5  A    between atoms: C_2  and  O_6
REMARK    6  A    between atoms: C_3  and  C_7
REMARK    7  A    between atoms: C_5  and  O_9
REMARK    8  A    between atoms: C_7  and  O_10
REMARK    9  A    between atoms: O_9  and  P_11
REMARK   10  A    between atoms: P_11  and  O_12
REMARK   11  A    between atoms: P_11  and  O_13
REMARK                            x       y       z     vdW  Elec       q    Type
REMARK                         _______ _______ _______ _____ _____    ______ ____
ROOT
ATOM      1  C   UNL     1       0.661   1.160  -0.811  0.00  0.00    +0.176 C 
ENDROOT
BRANCH   1   2
ATOM      2  O   UNL     1       1.344   2.285  -0.240  0.00  0.00    -0.386 OA
ATOM      3  H   UNL     1       1.251   2.274   0.727  0.00  0.00    +0.210 HD
ENDBRANCH   1   2
BRANCH   1   4
ATOM      4  C   UNL     1       1.042  -0.151  -0.104  0.00  0.00    +0.213 C 
BRANCH   4   5
ATOM      5  C   UNL     1       2.557  -0.384  -0.150  0.00  0.00    +0.189 C 
ATOM      6  O   UNL     1       3.302  -0.033   0.773  0.00  0.00    -0.292 OA
BRANCH   5   7
ATOM      7  C   UNL     1       3.099  -1.061  -1.411  0.00  0.00    +0.232 C 
BRANCH   7   8
ATOM      8  O   UNL     1       4.353  -1.694  -1.234  0.00  0.00    -0.387 OA
ATOM      9  H   UNL     1       4.920  -1.072  -0.741  0.00  0.00    +0.210 HD
ENDBRANCH   7   8
ENDBRANCH   5   7
ENDBRANCH   4   5
BRANCH   4  10
ATOM     10  O   UNL     1       0.511  -0.173   1.220  0.00  0.00    -0.382 OA
ATOM     11  H   UNL     1       0.967   0.504   1.750  0.00  0.00    +0.210 HD
ENDBRANCH   4  10
ENDBRANCH   1   4
BRANCH   1  12
ATOM     12  C   UNL     1      -0.859   1.386  -0.728  0.00  0.00    +0.206 C 
BRANCH  12  13
ATOM     13  O   UNL     1      -1.222   2.491  -1.549  0.00  0.00    -0.284 OA
BRANCH  13  14
ATOM     14  P   UNL     1      -2.724   3.013  -1.381  0.00  0.00    +0.472 P 
ATOM     15  O   UNL     1      -3.800   1.994  -1.516  0.00  0.00    -0.228 OA
BRANCH  14  16
ATOM     16  O   UNL     1      -2.718   3.842  -0.019  0.00  0.00    -0.303 OA
ATOM     17  H   UNL     1      -2.164   4.640  -0.105  0.00  0.00    +0.222 HD
ENDBRANCH  14  16
BRANCH  14  18
ATOM     18  O   UNL     1      -2.860   4.184  -2.456  0.00  0.00    -0.303 OA
ATOM     19  H   UNL     1      -3.285   3.853  -3.267  0.00  0.00    +0.222 HD
ENDBRANCH  14  18
ENDBRANCH  13  14
ENDBRANCH  12  13
ENDBRANCH   1  12
TORSDOF 11
