REMARK  Name = 
REMARK  4 active torsions:
REMARK  status: ('A' for Active; 'I' for Inactive)
REMARK    1  A    between atoms: C_1  and  C_2
REMARK    2  A    between atoms: C_1  and  C_3
REMARK    3  A    between atoms: C_2  and  O_4
REMARK    4  A    between atoms: C_3  and  N_6
REMARK                            x       y       z     vdW  Elec       q    Type
REMARK                         _______ _______ _______ _____ _____    ______ ____
ROOT
ATOM      1  C   UNL     1       0.986  -0.136  -0.043  0.00  0.00    +0.135 C 
ENDROOT
BRANCH   1   2
ATOM      2  C   UNL     1       0.506  -1.324   0.749  0.00  0.00    +0.306 C 
ATOM      3  O   UNL     1       0.335  -1.314   1.957  0.00  0.00    -0.251 OA
BRANCH   2   4
ATOM      4  O   UNL     1       0.307  -2.431   0.001  0.00  0.00    -0.481 OA
ATOM      5  H   UNL     1       0.465  -2.310  -0.954  0.00  0.00    +0.295 HD
ENDBRANCH   2   4
ENDBRANCH   1   2
BRANCH   1   6
ATOM      6  C   UNL     1       2.506  -0.096  -0.058  0.00  0.00    +0.089 C 
BRANCH   6   7
ATOM      7  N   UNL     1       2.979   1.077  -0.787  0.00  0.00    -0.329 NA
ATOM      8  H   UNL     1       2.693   1.040  -1.764  0.00  0.00    +0.118 HD
ATOM      9  H   UNL     1       3.999   1.096  -0.785  0.00  0.00    +0.118 HD
ENDBRANCH   6   7
ENDBRANCH   1   6
TORSDOF 4
