REMARK  Name = 
REMARK  6 active torsions:
REMARK  status: ('A' for Active; 'I' for Inactive)
REMARK    1  A    between atoms: C_1  and  C_4
REMARK    2  A    between atoms: C_1  and  O_5
REMARK    3  A    between atoms: C_2  and  O_7
REMARK    4  A    between atoms: C_4  and  O_9
REMARK    5  A    between atoms: C_6  and  O_11
REMARK    6  A    between atoms: C_10  and  O_12
REMARK                            x       y       z     vdW  Elec       q    Type
REMARK                         _______ _______ _______ _____ _____    ______ ____
ROOT
ATOM      1  C   UNL     1       0.663   1.308  -0.216  0.00  0.00    +0.220 C 
ATOM      2  C   UNL     1       1.391   0.003   0.229  0.00  0.00    +0.207 C 
ATOM      3  O   UNL     1      -0.684   1.308   0.287  0.00  0.00    -0.342 OA
ATOM      4  C   UNL     1       0.618  -1.213  -0.310  0.00  0.00    +0.179 C 
ATOM      5  C   UNL     1      -1.469   0.208  -0.187  0.00  0.00    +0.197 C 
ATOM      6  C   UNL     1      -0.849  -1.154   0.151  0.00  0.00    +0.171 C 
ENDROOT
BRANCH   1   7
ATOM      7  O   UNL     1       0.669   1.478  -1.632  0.00  0.00    -0.361 OA
ATOM      8  H   UNL     1       0.717   0.585  -2.029  0.00  0.00    +0.213 HD
ENDBRANCH   1   7
BRANCH   2   9
ATOM      9  O   UNL     1       1.479  -0.126   1.660  0.00  0.00    -0.384 OA
ATOM     10  H   UNL     1       1.767   0.747   2.009  0.00  0.00    +0.210 HD
ENDBRANCH   2   9
BRANCH   4  11
ATOM     11  O   UNL     1       0.686  -1.221  -1.744  0.00  0.00    -0.386 OA
ATOM     12  H   UNL     1       0.300  -2.069  -2.040  0.00  0.00    +0.210 HD
ENDBRANCH   4  11
BRANCH   6  13
ATOM     13  O   UNL     1      -0.947  -1.400   1.556  0.00  0.00    -0.387 OA
ATOM     14  H   UNL     1      -0.242  -0.872   1.991  0.00  0.00    +0.210 HD
ENDBRANCH   6  13
BRANCH   1  15
ATOM     15  C   UNL     1       1.341   2.556   0.392  0.00  0.00    +0.223 C 
BRANCH  15  16
ATOM     16  O   UNL     1       1.320   2.519   1.824  0.00  0.00    -0.390 OA
ATOM     17  H   UNL     1       0.369   2.555   2.057  0.00  0.00    +0.210 HD
ENDBRANCH  15  16
ENDBRANCH   1  15
TORSDOF 6
