REMARK  Name = 
REMARK  23 active torsions:
REMARK  status: ('A' for Active; 'I' for Inactive)
REMARK    1  A    between atoms: N_7  and  C_19
REMARK    2  A    between atoms: C_12  and  C_18
REMARK    3  A    between atoms: C_13  and  C_17
REMARK    4  A    between atoms: C_19  and  C_20
REMARK    5  A    between atoms: C_20  and  C_21
REMARK    6  A    between atoms: C_20  and  O_25
REMARK    7  A    between atoms: C_21  and  C_22
REMARK    8  A    between atoms: C_21  and  O_27
REMARK    9  A    between atoms: C_22  and  C_23
REMARK   10  A    between atoms: C_22  and  O_26
REMARK   11  A    between atoms: C_23  and  O_24
REMARK   12  A    between atoms: O_24  and  P_28
REMARK   13  A    between atoms: P_28  and  O_29
REMARK   14  A    between atoms: P_28  and  O_31
REMARK   15  A    between atoms: O_29  and  P_32
REMARK   16  A    between atoms: P_32  and  O_33
REMARK   17  A    between atoms: P_32  and  O_35
REMARK   18  A    between atoms: O_33  and  C_37
REMARK   19  A    between atoms: C_36  and  C_37
REMARK   20  A    between atoms: C_38  and  O_42
REMARK   21  A    between atoms: C_39  and  O_43
REMARK   22  A    between atoms: C_40  and  N_50
REMARK   23  A    between atoms: C_49  and  N_53
REMARK                            x       y       z     vdW  Elec       q    Type
REMARK                         _______ _______ _______ _____ _____    ______ ____
ROOT
ATOM      1  P   UNL     1      -4.884   0.696   3.924  0.00  0.00    +0.483 P 
ATOM      2  O   UNL     1      -4.480  -0.672   3.390  0.00  0.00    -0.227 OA
ENDROOT
BRANCH   1   3
ATOM      3  O   UNL     1      -5.461  -0.062   5.368  0.00  0.00    -0.302 OA
ATOM      4  H   UNL     1      -5.794   0.603   6.005  0.00  0.00    +0.222 HD
ENDBRANCH   1   3
BRANCH   1   5
ATOM      5  O   UNL     1      -6.516   0.974   3.419  0.00  0.00    -0.186 OA
BRANCH   5   6
ATOM      6  P   UNL     1      -7.535  -0.273   4.049  0.00  0.00    +0.483 P 
ATOM      7  O   UNL     1      -8.149  -0.479   2.663  0.00  0.00    -0.227 OA
BRANCH   6   8
ATOM      8  O   UNL     1      -8.554  -1.521   4.680  0.00  0.00    -0.302 OA
ATOM      9  H   UNL     1      -8.387  -1.662   5.626  0.00  0.00    +0.222 HD
ENDBRANCH   6   8
BRANCH   6  10
ATOM     10  O   UNL     1      -8.437   0.964   4.788  0.00  0.00    -0.284 OA
BRANCH  10  11
ATOM     11  C   UNL     1      -8.554   2.150   3.962  0.00  0.00    +0.206 C 
BRANCH  11  12
ATOM     12  C   UNL     1      -9.217   3.392   4.506  0.00  0.00    +0.178 C 
ATOM     13  C   UNL     1      -8.752   3.808   5.889  0.00  0.00    +0.178 C 
ATOM     14  C   UNL     1      -9.817   3.204   6.803  0.00  0.00    +0.195 C 
ATOM     15  C   UNL     1     -11.048   3.352   5.903  0.00  0.00    +0.253 C 
ATOM     16  O   UNL     1     -10.617   3.221   4.539  0.00  0.00    -0.346 OA
BRANCH  15  23
ATOM     17  N   UNL     1     -14.055  -0.636   7.604  0.00  0.00    -0.219 NA
ATOM     18  C   UNL     1     -12.698  -0.555   7.635  0.00  0.00    +0.225 A 
ATOM     19  N   UNL     1     -11.882   0.471   7.256  0.00  0.00    -0.216 NA
ATOM     20  C   UNL     1     -12.607   1.431   6.657  0.00  0.00    +0.167 A 
ATOM     21  C   UNL     1     -13.989   1.435   6.498  0.00  0.00    +0.147 A 
ATOM     22  C   UNL     1     -14.726   0.408   7.083  0.00  0.00    +0.147 A 
ATOM     23  N   UNL     1     -12.234   2.557   5.993  0.00  0.00    -0.286 N 
ATOM     24  C   UNL     1     -13.304   2.894   5.178  0.00  0.00    +0.203 A 
ATOM     25  N   UNL     1     -14.424   2.407   5.636  0.00  0.00    -0.231 NA
BRANCH  22  26
ATOM     26  N   UNL     1     -16.117   0.409   6.967  0.00  0.00    -0.341 N 
ATOM     27  H   UNL     1     -16.395   1.193   6.369  0.00  0.00    +0.144 HD
ATOM     28  H   UNL     1     -16.435  -0.487   6.620  0.00  0.00    +0.144 HD
ENDBRANCH  22  26
ENDBRANCH  15  23
BRANCH  14  29
ATOM     29  O   UNL     1      -9.885   3.983   8.003  0.00  0.00    -0.385 OA
ATOM     30  H   UNL     1      -9.571   4.882   7.761  0.00  0.00    +0.210 HD
ENDBRANCH  14  29
BRANCH  13  31
ATOM     31  O   UNL     1      -8.818   5.247   6.041  0.00  0.00    -0.386 OA
ATOM     32  H   UNL     1      -8.760   5.673   5.164  0.00  0.00    +0.210 HD
ENDBRANCH  13  31
ENDBRANCH  11  12
ENDBRANCH  10  11
ENDBRANCH   6  10
ENDBRANCH   5   6
ENDBRANCH   1   5
BRANCH   1  33
ATOM     33  O   UNL     1      -4.308   1.454   2.479  0.00  0.00    -0.284 OA
BRANCH  33  34
ATOM     34  C   UNL     1      -3.259   2.355   2.875  0.00  0.00    +0.206 C 
BRANCH  34  35
ATOM     35  C   UNL     1      -2.766   3.182   1.687  0.00  0.00    +0.172 C 
BRANCH  35  36
ATOM     36  O   UNL     1      -2.007   2.362   0.832  0.00  0.00    -0.387 OA
ATOM     37  H   UNL     1      -2.621   1.750   0.381  0.00  0.00    +0.210 HD
ENDBRANCH  35  36
BRANCH  35  38
ATOM     38  C   UNL     1      -3.912   3.855   0.900  0.00  0.00    +0.175 C 
BRANCH  38  39
ATOM     39  O   UNL     1      -4.783   2.863   0.313  0.00  0.00    -0.387 OA
ATOM     40  H   UNL     1      -4.757   2.049   0.860  0.00  0.00    +0.210 HD
ENDBRANCH  38  39
BRANCH  38  41
ATOM     41  C   UNL     1      -4.801   4.814   1.714  0.00  0.00    +0.165 C 
BRANCH  41  42
ATOM     42  O   UNL     1      -5.545   4.088   2.720  0.00  0.00    -0.387 OA
ATOM     43  H   UNL     1      -5.965   3.354   2.222  0.00  0.00    +0.210 HD
ENDBRANCH  41  42
BRANCH  41  44
ATOM     44  C   UNL     1      -4.041   5.980   2.387  0.00  0.00    +0.158 C 
BRANCH  44  51
ATOM     45  N   UNL     1       0.645   7.454   1.046  0.00  0.00    -0.272 N 
ATOM     46  C   UNL     1       0.120   6.441   1.791  0.00  0.00    +0.351 A 
ATOM     47  N   UNL     1      -1.233   6.299   1.904  0.00  0.00    -0.173 NA
ATOM     48  C   UNL     1      -2.080   7.077   1.308  0.00  0.00    +0.170 A 
ATOM     49  C   UNL     1      -1.558   8.203   0.443  0.00  0.00    +0.171 A 
ATOM     50  C   UNL     1      -0.064   8.392   0.362  0.00  0.00    +0.282 A 
ATOM     51  N   UNL     1      -3.456   6.933   1.439  0.00  0.00    -0.320 N 
ATOM     52  C   UNL     1      -4.304   7.836   0.762  0.00  0.00    +0.069 A 
ATOM     53  C   UNL     1      -3.747   8.817  -0.078  0.00  0.00    +0.089 A 
ATOM     54  N   UNL     1      -2.350   8.993  -0.216  0.00  0.00    -0.237 NA
ATOM     55  C   UNL     1      -5.700   7.800   0.880  0.00  0.00    +0.031 A 
ATOM     56  C   UNL     1      -6.550   8.643   0.154  0.00  0.00    -0.045 A 
ATOM     57  C   UNL     1      -5.985   9.601  -0.695  0.00  0.00    -0.045 A 
ATOM     58  C   UNL     1      -4.584   9.687  -0.786  0.00  0.00    +0.033 A 
ATOM     59  O   UNL     1       0.444   9.328  -0.227  0.00  0.00    -0.265 OA
ATOM     60  O   UNL     1       0.894   5.697   2.386  0.00  0.00    -0.245 OA
ATOM     61  C   UNL     1      -6.816  10.550  -1.512  0.00  0.00    +0.044 C 
ATOM     62  C   UNL     1      -8.034   8.454   0.317  0.00  0.00    +0.044 C 
ATOM     63  H   UNL     1       1.645   7.536   1.042  0.00  0.00    +0.174 HD
ENDBRANCH  44  51
ENDBRANCH  41  44
ENDBRANCH  38  41
ENDBRANCH  35  38
ENDBRANCH  34  35
ENDBRANCH  33  34
ENDBRANCH   1  33
TORSDOF 21
