REMARK  Name = 
REMARK  2 active torsions:
REMARK  status: ('A' for Active; 'I' for Inactive)
REMARK    1  A    between atoms: C_1  and  C_2
REMARK    2  A    between atoms: C_1  and  O_3
REMARK                            x       y       z     vdW  Elec       q    Type
REMARK                         _______ _______ _______ _____ _____    ______ ____
ROOT
ATOM      1  C   UNL     1       1.067   0.063  -0.017  0.00  0.00    +0.369 C 
ATOM      2  O   UNL     1       2.281   0.053  -0.007  0.00  0.00    -0.242 OA
ENDROOT
BRANCH   1   3
ATOM      3  C   UNL     1       0.274   0.923  -0.980  0.00  0.00    +0.341 C 
ATOM      4  O   UNL     1      -0.949   0.886  -0.936  0.00  0.00    -0.289 OA
ENDBRANCH   1   3
BRANCH   1   5
ATOM      5  O   UNL     1       0.252  -0.649   0.779  0.00  0.00    -0.475 OA
ATOM      6  H   UNL     1      -0.687  -0.445   0.552  0.00  0.00    +0.295 HD
ENDBRANCH   1   5
TORSDOF 2
