REMARK  Name = 
REMARK  1 active torsions:
REMARK  status: ('A' for Active; 'I' for Inactive)
REMARK    1  A    between atoms: C_1  and  C_2
REMARK                            x       y       z     vdW  Elec       q    Type
REMARK                         _______ _______ _______ _____ _____    ______ ____
ROOT
ATOM      1  C   UNL     1       0.971  -0.049   0.065  0.00  0.00    +0.082 C 
ATOM      2  C   UNL     1       2.468  -0.023   0.044  0.00  0.00    +0.220 C 
ATOM      3  O   UNL     1       3.115   0.788  -0.611  0.00  0.00    -0.301 OA
ENDROOT
TORSDOF 0
