REMARK  Name = 
REMARK  4 active torsions:
REMARK  status: ('A' for Active; 'I' for Inactive)
REMARK    1  A    between atoms: C_1  and  C_2
REMARK    2  A    between atoms: C_1  and  O_3
REMARK    3  A    between atoms: C_5  and  C_6
REMARK    4  A    between atoms: C_6  and  O_7
REMARK                            x       y       z     vdW  Elec       q    Type
REMARK                         _______ _______ _______ _____ _____    ______ ____
ROOT
ATOM      1  C   UNL     1       0.168   1.264  -0.377  0.00  0.00    +0.098 C 
ATOM      2  C   UNL     1       0.832   2.385  -0.697  0.00  0.00    +0.098 C 
ENDROOT
BRANCH   1   3
ATOM      3  C   UNL     1       0.956   0.071  -0.036  0.00  0.00    +0.330 C 
ATOM      4  O   UNL     1       2.175   0.040  -0.027  0.00  0.00    -0.246 OA
BRANCH   3   5
ATOM      5  O   UNL     1       0.185  -0.988   0.267  0.00  0.00    -0.478 OA
ATOM      6  H   UNL     1      -0.777  -0.841   0.225  0.00  0.00    +0.295 HD
ENDBRANCH   3   5
ENDBRANCH   1   3
BRANCH   2   7
ATOM      7  C   UNL     1       0.071   3.594  -1.043  0.00  0.00    +0.330 C 
ATOM      8  O   UNL     1      -1.146   3.653  -1.059  0.00  0.00    -0.246 OA
BRANCH   7   9
ATOM      9  O   UNL     1       0.873   4.633  -1.340  0.00  0.00    -0.478 OA
ATOM     10  H   UNL     1       1.831   4.460  -1.290  0.00  0.00    +0.295 HD
ENDBRANCH   7   9
ENDBRANCH   2   7
TORSDOF 4
