REMARK  Name = 
REMARK  0 active torsions:
REMARK  status: ('A' for Active; 'I' for Inactive)
REMARK                            x       y       z     vdW  Elec       q    Type
REMARK                         _______ _______ _______ _____ _____    ______ ____
ROOT
ATOM      1  C   UNL     1       0.468  -0.905  -0.000  0.00  0.00    +0.167 A 
ATOM      2  C   UNL     1       0.815   0.425  -0.000  0.00  0.00    +0.172 A 
ATOM      3  N   UNL     1      -0.765  -1.460  -0.000  0.00  0.00    -0.197 NA
ATOM      4  N   UNL     1       1.651  -1.581   0.000  0.00  0.00    -0.329 N 
ATOM      5  C   UNL     1      -0.257   1.395  -0.000  0.00  0.00    +0.280 A 
ATOM      6  N   UNL     1       2.178   0.588  -0.000  0.00  0.00    -0.229 NA
ATOM      7  C   UNL     1      -1.725  -0.573  -0.000  0.00  0.00    +0.195 A 
ATOM      8  C   UNL     1       2.651  -0.642   0.000  0.00  0.00    +0.199 A 
ATOM      9  N   UNL     1      -1.508   0.792  -0.000  0.00  0.00    -0.293 N 
ATOM     10  O   UNL     1      -0.126   2.615  -0.000  0.00  0.00    -0.265 OA
ATOM     11  N   UNL     1      -3.016  -0.969  -0.000  0.00  0.00    -0.329 N 
ATOM     12  H   UNL     1       1.759  -2.584   0.000  0.00  0.00    +0.168 HD
ATOM     13  H   UNL     1      -2.284   1.430   0.000  0.00  0.00    +0.172 HD
ATOM     14  H   UNL     1      -3.205  -1.963  -0.000  0.00  0.00    +0.145 HD
ATOM     15  H   UNL     1      -3.798  -0.333   0.000  0.00  0.00    +0.145 HD
ENDROOT
TORSDOF 0
