MODEL 1
REMARK VINA RESULT:    -7.600      0.000      0.000
REMARK INTER + INTRA:         -12.776
REMARK INTER:                 -11.154
REMARK INTRA:                  -1.622
REMARK UNBOUND:                -1.622
REMARK  Name = 5318574
REMARK  12 active torsions:
REMARK  status: ('A' for Active; 'I' for Inactive)
REMARK    1  A    between atoms: O_2  and  C_17
REMARK    2  A    between atoms: O_2  and  C_19
REMARK    3  A    between atoms: O_3  and  C_13
REMARK    4  A    between atoms: O_4  and  C_14
REMARK    5  A    between atoms: O_5  and  C_15
REMARK    6  A    between atoms: O_6  and  C_18
REMARK    7  A    between atoms: O_9  and  C_25
REMARK    8  A    between atoms: O_10  and  C_30
REMARK    9  A    between atoms: O_11  and  C_31
REMARK   10  A    between atoms: O_12  and  C_33
REMARK   11  A    between atoms: C_16  and  C_18
REMARK   12  A    between atoms: C_20  and  C_24
REMARK                            x       y       z     vdW  Elec       q    Type
REMARK                         _______ _______ _______ _____ _____    ______ ____
ROOT
ATOM      1  O   UNL     1      23.380  11.925  32.488  0.00  0.00    +0.000 OA
ATOM      2  O   UNL     1      25.517  10.200  29.469  0.00  0.00    +0.000 OA
ATOM      3  C   UNL     1      25.506  11.655  31.348  0.00  0.00    +0.000 A 
ATOM      4  C   UNL     1      24.758  12.286  32.344  0.00  0.00    +0.000 A 
ATOM      5  C   UNL     1      24.843  10.725  30.359  0.00  0.00    +0.000 A 
ATOM      6  C   UNL     1      23.416  10.456  30.518  0.00  0.00    +0.000 A 
ATOM      7  C   UNL     1      22.759  11.052  31.599  0.00  0.00    +0.000 A 
ATOM      8  C   UNL     1      22.725   9.607  29.618  0.00  0.00    +0.000 A 
ATOM      9  C   UNL     1      21.404  10.777  31.768  0.00  0.00    +0.000 A 
ATOM     10  C   UNL     1      21.365   9.353  29.796  0.00  0.00    +0.000 A 
ATOM     11  C   UNL     1      20.721   9.936  30.876  0.00  0.00    +0.000 A 
ENDROOT
BRANCH   4  12
ATOM     12  C   UNL     1      25.179  13.350  33.470  0.00  0.00    +0.000 A 
ATOM     13  C   UNL     1      25.109  13.057  34.848  0.00  0.00    +0.000 A 
ATOM     14  C   UNL     1      25.660  14.674  33.244  0.00  0.00    +0.000 A 
ATOM     15  C   UNL     1      25.646  13.945  35.830  0.00  0.00    +0.000 A 
ATOM     16  C   UNL     1      26.344  15.478  34.177  0.00  0.00    +0.000 A 
ATOM     17  C   UNL     1      26.322  15.110  35.488  0.00  0.00    +0.000 A 
BRANCH  15  18
ATOM     18  O   UNL     1      25.524  13.716  37.174  0.00  0.00    +0.000 OA
ATOM     19  H   UNL     1      24.999  14.431  37.562  0.00  0.00    +0.000 HD
ENDBRANCH  15  18
BRANCH  17  20
ATOM     20  O   UNL     1      26.893  15.937  36.407  0.00  0.00    +0.000 OA
ATOM     21  H   UNL     1      27.767  16.176  36.045  0.00  0.00    +0.000 HD
ENDBRANCH  17  20
ENDBRANCH   4  12
BRANCH   8  22
ATOM     22  O   UNL     1      23.332   9.022  28.547  0.00  0.00    +0.000 OA
ATOM     23  H   UNL     1      22.856   9.213  27.718  0.00  0.00    +0.000 HD
ENDBRANCH   8  22
BRANCH  11  24
ATOM     24  O   UNL     1      19.390   9.695  31.085  0.00  0.00    +0.000 OA
ATOM     25  H   UNL     1      19.276   9.224  31.930  0.00  0.00    +0.000 HD
ENDBRANCH  11  24
BRANCH   3  26
ATOM     26  O   UNL     1      26.857  11.810  30.978  0.00  0.00    +0.000 OA
BRANCH  26  32
ATOM     27  O   UNL     1      28.107  11.901  32.940  0.00  0.00    +0.000 OA
ATOM     28  C   UNL     1      30.206  10.564  31.510  0.00  0.00    +0.000 C 
ATOM     29  C   UNL     1      30.445  11.487  32.727  0.00  0.00    +0.000 C 
ATOM     30  C   UNL     1      28.759  10.111  31.334  0.00  0.00    +0.000 C 
ATOM     31  C   UNL     1      29.362  12.561  32.816  0.00  0.00    +0.000 C 
ATOM     32  C   UNL     1      27.705  11.099  31.832  0.00  0.00    +0.000 C 
BRANCH  28  33
ATOM     33  O   UNL     1      31.046   9.397  31.634  0.00  0.00    +0.000 OA
ATOM     34  H   UNL     1      30.935   9.024  32.528  0.00  0.00    +0.000 HD
ENDBRANCH  28  33
BRANCH  29  35
ATOM     35  O   UNL     1      31.743  12.078  32.634  0.00  0.00    +0.000 OA
ATOM     36  H   UNL     1      32.225  11.899  33.461  0.00  0.00    +0.000 HD
ENDBRANCH  29  35
BRANCH  30  37
ATOM     37  O   UNL     1      28.474   9.613  30.026  0.00  0.00    +0.000 OA
ATOM     38  H   UNL     1      27.510   9.623  29.897  0.00  0.00    +0.000 HD
ENDBRANCH  30  37
BRANCH  31  39
ATOM     39  C   UNL     1      29.507  13.467  34.058  0.00  0.00    +0.000 C 
BRANCH  39  40
ATOM     40  O   UNL     1      28.988  12.831  35.231  0.00  0.00    +0.000 OA
ATOM     41  H   UNL     1      29.382  11.940  35.245  0.00  0.00    +0.000 HD
ENDBRANCH  39  40
ENDBRANCH  31  39
ENDBRANCH  26  32
ENDBRANCH   3  26
TORSDOF 12
ENDMDL
MODEL 2
REMARK VINA RESULT:    -7.067      2.238      6.332
REMARK INTER + INTRA:         -11.994
REMARK INTER:                 -10.607
REMARK INTRA:                  -1.387
REMARK UNBOUND:                -1.622
REMARK  Name = 5318574
REMARK  12 active torsions:
REMARK  status: ('A' for Active; 'I' for Inactive)
REMARK    1  A    between atoms: O_2  and  C_17
REMARK    2  A    between atoms: O_2  and  C_19
REMARK    3  A    between atoms: O_3  and  C_13
REMARK    4  A    between atoms: O_4  and  C_14
REMARK    5  A    between atoms: O_5  and  C_15
REMARK    6  A    between atoms: O_6  and  C_18
REMARK    7  A    between atoms: O_9  and  C_25
REMARK    8  A    between atoms: O_10  and  C_30
REMARK    9  A    between atoms: O_11  and  C_31
REMARK   10  A    between atoms: O_12  and  C_33
REMARK   11  A    between atoms: C_16  and  C_18
REMARK   12  A    between atoms: C_20  and  C_24
REMARK                            x       y       z     vdW  Elec       q    Type
REMARK                         _______ _______ _______ _____ _____    ______ ____
ROOT
ATOM      1  O   UNL     1      28.406  13.900  31.694  0.00  0.00    +0.000 OA
ATOM      2  O   UNL     1      27.784  10.743  29.182  0.00  0.00    +0.000 OA
ATOM      3  C   UNL     1      27.156  11.887  31.169  0.00  0.00    +0.000 A 
ATOM      4  C   UNL     1      27.410  12.937  32.053  0.00  0.00    +0.000 A 
ATOM      5  C   UNL     1      28.008  11.694  29.935  0.00  0.00    +0.000 A 
ATOM      6  C   UNL     1      29.057  12.674  29.665  0.00  0.00    +0.000 A 
ATOM      7  C   UNL     1      29.184  13.750  30.549  0.00  0.00    +0.000 A 
ATOM      8  C   UNL     1      29.904  12.547  28.537  0.00  0.00    +0.000 A 
ATOM      9  C   UNL     1      30.167  14.699  30.279  0.00  0.00    +0.000 A 
ATOM     10  C   UNL     1      30.891  13.502  28.289  0.00  0.00    +0.000 A 
ATOM     11  C   UNL     1      31.006  14.573  29.161  0.00  0.00    +0.000 A 
ENDROOT
BRANCH   4  12
ATOM     12  C   UNL     1      26.719  13.338  33.446  0.00  0.00    +0.000 A 
ATOM     13  C   UNL     1      26.189  12.375  34.329  0.00  0.00    +0.000 A 
ATOM     14  C   UNL     1      26.554  14.659  33.958  0.00  0.00    +0.000 A 
ATOM     15  C   UNL     1      25.735  12.728  35.637  0.00  0.00    +0.000 A 
ATOM     16  C   UNL     1      26.273  15.000  35.296  0.00  0.00    +0.000 A 
ATOM     17  C   UNL     1      25.846  14.019  36.138  0.00  0.00    +0.000 A 
BRANCH  15  18
ATOM     18  O   UNL     1      25.150  11.823  36.481  0.00  0.00    +0.000 OA
ATOM     19  H   UNL     1      24.871  12.287  37.284  0.00  0.00    +0.000 HD
ENDBRANCH  15  18
BRANCH  17  20
ATOM     20  O   UNL     1      25.473  14.362  37.403  0.00  0.00    +0.000 OA
ATOM     21  H   UNL     1      24.977  15.197  37.318  0.00  0.00    +0.000 HD
ENDBRANCH  17  20
ENDBRANCH   4  12
BRANCH   8  22
ATOM     22  O   UNL     1      29.815  11.504  27.664  0.00  0.00    +0.000 OA
ATOM     23  H   UNL     1      29.580  11.807  26.769  0.00  0.00    +0.000 HD
ENDBRANCH   8  22
BRANCH  11  24
ATOM     24  O   UNL     1      31.955  15.533  28.937  0.00  0.00    +0.000 OA
ATOM     25  H   UNL     1      31.991  15.736  27.986  0.00  0.00    +0.000 HD
ENDBRANCH  11  24
BRANCH   3  26
ATOM     26  O   UNL     1      26.252  10.808  31.259  0.00  0.00    +0.000 OA
BRANCH  26  32
ATOM     27  O   UNL     1      24.224  11.953  31.289  0.00  0.00    +0.000 OA
ATOM     28  C   UNL     1      23.006   9.553  30.291  0.00  0.00    +0.000 C 
ATOM     29  C   UNL     1      22.254  10.621  31.118  0.00  0.00    +0.000 C 
ATOM     30  C   UNL     1      24.343  10.020  29.722  0.00  0.00    +0.000 C 
ATOM     31  C   UNL     1      23.207  11.340  32.072  0.00  0.00    +0.000 C 
ATOM     32  C   UNL     1      25.072  11.071  30.556  0.00  0.00    +0.000 C 
BRANCH  28  33
ATOM     33  O   UNL     1      22.162   9.123  29.202  0.00  0.00    +0.000 OA
ATOM     34  H   UNL     1      22.418   8.218  28.946  0.00  0.00    +0.000 HD
ENDBRANCH  28  33
BRANCH  29  35
ATOM     35  O   UNL     1      21.181  10.007  31.834  0.00  0.00    +0.000 OA
ATOM     36  H   UNL     1      21.540   9.269  32.357  0.00  0.00    +0.000 HD
ENDBRANCH  29  35
BRANCH  30  37
ATOM     37  O   UNL     1      25.195   8.945  29.320  0.00  0.00    +0.000 OA
ATOM     38  H   UNL     1      25.436   8.433  30.111  0.00  0.00    +0.000 HD
ENDBRANCH  30  37
BRANCH  31  39
ATOM     39  C   UNL     1      22.525  12.472  32.871  0.00  0.00    +0.000 C 
BRANCH  39  40
ATOM     40  O   UNL     1      23.308  13.670  32.850  0.00  0.00    +0.000 OA
ATOM     41  H   UNL     1      24.070  13.479  32.273  0.00  0.00    +0.000 HD
ENDBRANCH  39  40
ENDBRANCH  31  39
ENDBRANCH  26  32
ENDBRANCH   3  26
TORSDOF 12
ENDMDL
MODEL 3
REMARK VINA RESULT:    -6.890      2.045      6.174
REMARK INTER + INTRA:         -11.733
REMARK INTER:                 -11.160
REMARK INTRA:                  -0.574
REMARK UNBOUND:                -1.622
REMARK  Name = 5318574
REMARK  12 active torsions:
REMARK  status: ('A' for Active; 'I' for Inactive)
REMARK    1  A    between atoms: O_2  and  C_17
REMARK    2  A    between atoms: O_2  and  C_19
REMARK    3  A    between atoms: O_3  and  C_13
REMARK    4  A    between atoms: O_4  and  C_14
REMARK    5  A    between atoms: O_5  and  C_15
REMARK    6  A    between atoms: O_6  and  C_18
REMARK    7  A    between atoms: O_9  and  C_25
REMARK    8  A    between atoms: O_10  and  C_30
REMARK    9  A    between atoms: O_11  and  C_31
REMARK   10  A    between atoms: O_12  and  C_33
REMARK   11  A    between atoms: C_16  and  C_18
REMARK   12  A    between atoms: C_20  and  C_24
REMARK                            x       y       z     vdW  Elec       q    Type
REMARK                         _______ _______ _______ _____ _____    ______ ____
ROOT
ATOM      1  O   UNL     1      25.397  14.570  33.283  0.00  0.00    +0.000 OA
ATOM      2  O   UNL     1      28.747  14.841  30.966  0.00  0.00    +0.000 OA
ATOM      3  C   UNL     1      26.597  13.880  31.288  0.00  0.00    +0.000 A 
ATOM      4  C   UNL     1      25.478  13.748  32.113  0.00  0.00    +0.000 A 
ATOM      5  C   UNL     1      27.755  14.761  31.695  0.00  0.00    +0.000 A 
ATOM      6  C   UNL     1      27.639  15.518  32.940  0.00  0.00    +0.000 A 
ATOM      7  C   UNL     1      26.445  15.405  33.660  0.00  0.00    +0.000 A 
ATOM      8  C   UNL     1      28.692  16.351  33.392  0.00  0.00    +0.000 A 
ATOM      9  C   UNL     1      26.322  16.144  34.833  0.00  0.00    +0.000 A 
ATOM     10  C   UNL     1      28.555  17.076  34.576  0.00  0.00    +0.000 A 
ATOM     11  C   UNL     1      27.366  16.969  35.280  0.00  0.00    +0.000 A 
ENDROOT
BRANCH   4  12
ATOM     12  C   UNL     1      24.154  12.852  31.965  0.00  0.00    +0.000 A 
ATOM     13  C   UNL     1      23.794  12.234  30.749  0.00  0.00    +0.000 A 
ATOM     14  C   UNL     1      23.206  12.568  32.992  0.00  0.00    +0.000 A 
ATOM     15  C   UNL     1      22.713  11.303  30.674  0.00  0.00    +0.000 A 
ATOM     16  C   UNL     1      22.253  11.531  32.977  0.00  0.00    +0.000 A 
ATOM     17  C   UNL     1      21.998  10.903  31.796  0.00  0.00    +0.000 A 
BRANCH  15  18
ATOM     18  O   UNL     1      22.301  10.749  29.492  0.00  0.00    +0.000 OA
ATOM     19  H   UNL     1      21.340  10.640  29.522  0.00  0.00    +0.000 HD
ENDBRANCH  15  18
BRANCH  17  20
ATOM     20  O   UNL     1      21.005   9.972  31.754  0.00  0.00    +0.000 OA
ATOM     21  H   UNL     1      21.238   9.365  31.026  0.00  0.00    +0.000 HD
ENDBRANCH  17  20
ENDBRANCH   4  12
BRANCH   8  22
ATOM     22  O   UNL     1      29.872  16.473  32.721  0.00  0.00    +0.000 OA
ATOM     23  H   UNL     1      30.578  15.950  33.143  0.00  0.00    +0.000 HD
ENDBRANCH   8  22
BRANCH  11  24
ATOM     24  O   UNL     1      27.196  17.679  36.438  0.00  0.00    +0.000 OA
ATOM     25  H   UNL     1      27.634  18.544  36.354  0.00  0.00    +0.000 HD
ENDBRANCH  11  24
BRANCH   3  26
ATOM     26  O   UNL     1      26.943  13.212  30.096  0.00  0.00    +0.000 OA
BRANCH  26  32
ATOM     27  O   UNL     1      27.365  11.453  31.562  0.00  0.00    +0.000 OA
ATOM     28  C   UNL     1      28.575  10.076  29.354  0.00  0.00    +0.000 C 
ATOM     29  C   UNL     1      28.944   9.822  30.834  0.00  0.00    +0.000 C 
ATOM     30  C   UNL     1      27.270  10.840  29.149  0.00  0.00    +0.000 C 
ATOM     31  C   UNL     1      28.735  11.084  31.670  0.00  0.00    +0.000 C 
ATOM     32  C   UNL     1      26.913  11.824  30.262  0.00  0.00    +0.000 C 
BRANCH  28  33
ATOM     33  O   UNL     1      28.484   8.809  28.669  0.00  0.00    +0.000 OA
ATOM     34  H   UNL     1      27.789   8.870  27.988  0.00  0.00    +0.000 HD
ENDBRANCH  28  33
BRANCH  29  35
ATOM     35  O   UNL     1      30.297   9.370  30.921  0.00  0.00    +0.000 OA
ATOM     36  H   UNL     1      30.734   9.535  30.067  0.00  0.00    +0.000 HD
ENDBRANCH  29  35
BRANCH  30  37
ATOM     37  O   UNL     1      27.144  11.412  27.845  0.00  0.00    +0.000 OA
ATOM     38  H   UNL     1      26.492  10.892  27.345  0.00  0.00    +0.000 HD
ENDBRANCH  30  37
BRANCH  31  39
ATOM     39  C   UNL     1      29.016  10.868  33.173  0.00  0.00    +0.000 C 
BRANCH  39  40
ATOM     40  O   UNL     1      27.926  11.328  33.978  0.00  0.00    +0.000 OA
ATOM     41  H   UNL     1      28.150  11.082  34.894  0.00  0.00    +0.000 HD
ENDBRANCH  39  40
ENDBRANCH  31  39
ENDBRANCH  26  32
ENDBRANCH   3  26
TORSDOF 12
ENDMDL
MODEL 4
REMARK VINA RESULT:    -6.768      1.759      2.796
REMARK INTER + INTRA:         -11.554
REMARK INTER:                 -10.570
REMARK INTRA:                  -0.984
REMARK UNBOUND:                -1.622
REMARK  Name = 5318574
REMARK  12 active torsions:
REMARK  status: ('A' for Active; 'I' for Inactive)
REMARK    1  A    between atoms: O_2  and  C_17
REMARK    2  A    between atoms: O_2  and  C_19
REMARK    3  A    between atoms: O_3  and  C_13
REMARK    4  A    between atoms: O_4  and  C_14
REMARK    5  A    between atoms: O_5  and  C_15
REMARK    6  A    between atoms: O_6  and  C_18
REMARK    7  A    between atoms: O_9  and  C_25
REMARK    8  A    between atoms: O_10  and  C_30
REMARK    9  A    between atoms: O_11  and  C_31
REMARK   10  A    between atoms: O_12  and  C_33
REMARK   11  A    between atoms: C_16  and  C_18
REMARK   12  A    between atoms: C_20  and  C_24
REMARK                            x       y       z     vdW  Elec       q    Type
REMARK                         _______ _______ _______ _____ _____    ______ ____
ROOT
ATOM      1  O   UNL     1      23.786  12.097  32.814  0.00  0.00    +0.000 OA
ATOM      2  O   UNL     1      26.080  10.052  30.127  0.00  0.00    +0.000 OA
ATOM      3  C   UNL     1      25.994  11.569  31.954  0.00  0.00    +0.000 A 
ATOM      4  C   UNL     1      25.202  12.310  32.834  0.00  0.00    +0.000 A 
ATOM      5  C   UNL     1      25.362  10.675  30.913  0.00  0.00    +0.000 A 
ATOM      6  C   UNL     1      23.905  10.560  30.900  0.00  0.00    +0.000 A 
ATOM      7  C   UNL     1      23.189  11.259  31.876  0.00  0.00    +0.000 A 
ATOM      8  C   UNL     1      23.244   9.753  29.941  0.00  0.00    +0.000 A 
ATOM      9  C   UNL     1      21.803  11.131  31.881  0.00  0.00    +0.000 A 
ATOM     10  C   UNL     1      21.852   9.645  29.955  0.00  0.00    +0.000 A 
ATOM     11  C   UNL     1      21.148  10.331  30.931  0.00  0.00    +0.000 A 
ENDROOT
BRANCH   4  12
ATOM     12  C   UNL     1      25.593  13.367  33.977  0.00  0.00    +0.000 A 
ATOM     13  C   UNL     1      25.944  12.968  35.284  0.00  0.00    +0.000 A 
ATOM     14  C   UNL     1      25.639  14.786  33.837  0.00  0.00    +0.000 A 
ATOM     15  C   UNL     1      26.455  13.900  36.239  0.00  0.00    +0.000 A 
ATOM     16  C   UNL     1      26.297  15.683  34.701  0.00  0.00    +0.000 A 
ATOM     17  C   UNL     1      26.697  15.231  35.922  0.00  0.00    +0.000 A 
BRANCH  15  18
ATOM     18  O   UNL     1      26.733  13.549  37.532  0.00  0.00    +0.000 OA
ATOM     19  H   UNL     1      27.595  13.110  37.555  0.00  0.00    +0.000 HD
ENDBRANCH  15  18
BRANCH  17  20
ATOM     20  O   UNL     1      27.239  16.119  36.801  0.00  0.00    +0.000 OA
ATOM     21  H   UNL     1      28.110  15.755  37.046  0.00  0.00    +0.000 HD
ENDBRANCH  17  20
ENDBRANCH   4  12
BRANCH   8  22
ATOM     22  O   UNL     1      23.911   9.070  28.969  0.00  0.00    +0.000 OA
ATOM     23  H   UNL     1      24.102   9.638  28.200  0.00  0.00    +0.000 HD
ENDBRANCH   8  22
BRANCH  11  24
ATOM     24  O   UNL     1      19.783  10.234  30.979  0.00  0.00    +0.000 OA
ATOM     25  H   UNL     1      19.393  10.841  30.325  0.00  0.00    +0.000 HD
ENDBRANCH  11  24
BRANCH   3  26
ATOM     26  O   UNL     1      27.389  11.572  31.752  0.00  0.00    +0.000 OA
BRANCH  26  32
ATOM     27  O   UNL     1      28.049  12.299  29.640  0.00  0.00    +0.000 OA
ATOM     28  C   UNL     1      30.102  13.818  30.950  0.00  0.00    +0.000 C 
ATOM     29  C   UNL     1      30.203  13.309  29.493  0.00  0.00    +0.000 C 
ATOM     30  C   UNL     1      28.694  13.781  31.536  0.00  0.00    +0.000 C 
ATOM     31  C   UNL     1      29.405  12.019  29.312  0.00  0.00    +0.000 C 
ATOM     32  C   UNL     1      27.793  12.674  30.992  0.00  0.00    +0.000 C 
BRANCH  28  33
ATOM     33  O   UNL     1      30.595  15.173  31.008  0.00  0.00    +0.000 OA
ATOM     34  H   UNL     1      30.962  15.334  31.897  0.00  0.00    +0.000 HD
ENDBRANCH  28  33
BRANCH  29  35
ATOM     35  O   UNL     1      31.576  13.113  29.147  0.00  0.00    +0.000 OA
ATOM     36  H   UNL     1      32.045  13.960  29.247  0.00  0.00    +0.000 HD
ENDBRANCH  29  35
BRANCH  30  37
ATOM     37  O   UNL     1      28.670  13.861  32.963  0.00  0.00    +0.000 OA
ATOM     38  H   UNL     1      28.907  14.768  33.223  0.00  0.00    +0.000 HD
ENDBRANCH  30  37
BRANCH  31  39
ATOM     39  C   UNL     1      29.407  11.505  27.856  0.00  0.00    +0.000 C 
BRANCH  39  40
ATOM     40  O   UNL     1      28.077  11.272  27.383  0.00  0.00    +0.000 OA
ATOM     41  H   UNL     1      27.967  11.848  26.604  0.00  0.00    +0.000 HD
ENDBRANCH  39  40
ENDBRANCH  31  39
ENDBRANCH  26  32
ENDBRANCH   3  26
TORSDOF 12
ENDMDL
MODEL 5
REMARK VINA RESULT:    -6.751      2.339      7.671
REMARK INTER + INTRA:         -11.530
REMARK INTER:                 -10.257
REMARK INTRA:                  -1.273
REMARK UNBOUND:                -1.622
REMARK  Name = 5318574
REMARK  12 active torsions:
REMARK  status: ('A' for Active; 'I' for Inactive)
REMARK    1  A    between atoms: O_2  and  C_17
REMARK    2  A    between atoms: O_2  and  C_19
REMARK    3  A    between atoms: O_3  and  C_13
REMARK    4  A    between atoms: O_4  and  C_14
REMARK    5  A    between atoms: O_5  and  C_15
REMARK    6  A    between atoms: O_6  and  C_18
REMARK    7  A    between atoms: O_9  and  C_25
REMARK    8  A    between atoms: O_10  and  C_30
REMARK    9  A    between atoms: O_11  and  C_31
REMARK   10  A    between atoms: O_12  and  C_33
REMARK   11  A    between atoms: C_16  and  C_18
REMARK   12  A    between atoms: C_20  and  C_24
REMARK                            x       y       z     vdW  Elec       q    Type
REMARK                         _______ _______ _______ _____ _____    ______ ____
ROOT
ATOM      1  O   UNL     1      28.764  13.654  33.793  0.00  0.00    +0.000 OA
ATOM      2  O   UNL     1      24.816  13.626  34.831  0.00  0.00    +0.000 OA
ATOM      3  C   UNL     1      26.447  13.395  33.117  0.00  0.00    +0.000 A 
ATOM      4  C   UNL     1      27.795  13.461  32.758  0.00  0.00    +0.000 A 
ATOM      5  C   UNL     1      26.014  13.662  34.540  0.00  0.00    +0.000 A 
ATOM      6  C   UNL     1      27.051  13.925  35.535  0.00  0.00    +0.000 A 
ATOM      7  C   UNL     1      28.384  13.879  35.114  0.00  0.00    +0.000 A 
ATOM      8  C   UNL     1      26.718  14.201  36.885  0.00  0.00    +0.000 A 
ATOM      9  C   UNL     1      29.374  14.105  36.065  0.00  0.00    +0.000 A 
ATOM     10  C   UNL     1      27.725  14.435  37.823  0.00  0.00    +0.000 A 
ATOM     11  C   UNL     1      29.044  14.378  37.402  0.00  0.00    +0.000 A 
ENDROOT
BRANCH   4  12
ATOM     12  C   UNL     1      28.520  13.288  31.336  0.00  0.00    +0.000 A 
ATOM     13  C   UNL     1      28.917  14.392  30.553  0.00  0.00    +0.000 A 
ATOM     14  C   UNL     1      28.849  12.055  30.699  0.00  0.00    +0.000 A 
ATOM     15  C   UNL     1      29.712  14.228  29.377  0.00  0.00    +0.000 A 
ATOM     16  C   UNL     1      29.770  11.885  29.647  0.00  0.00    +0.000 A 
ATOM     17  C   UNL     1      30.193  12.990  28.973  0.00  0.00    +0.000 A 
BRANCH  15  18
ATOM     18  O   UNL     1      30.047  15.277  28.564  0.00  0.00    +0.000 OA
ATOM     19  H   UNL     1      30.528  15.933  29.088  0.00  0.00    +0.000 HD
ENDBRANCH  15  18
BRANCH  17  20
ATOM     20  O   UNL     1      31.002  12.822  27.889  0.00  0.00    +0.000 OA
ATOM     21  H   UNL     1      30.947  11.876  27.658  0.00  0.00    +0.000 HD
ENDBRANCH  17  20
ENDBRANCH   4  12
BRANCH   8  22
ATOM     22  O   UNL     1      25.430  14.266  37.325  0.00  0.00    +0.000 OA
ATOM     23  H   UNL     1      24.897  14.873  36.780  0.00  0.00    +0.000 HD
ENDBRANCH   8  22
BRANCH  11  24
ATOM     24  O   UNL     1      30.054  14.590  38.301  0.00  0.00    +0.000 OA
ATOM     25  H   UNL     1      29.746  15.201  38.995  0.00  0.00    +0.000 HD
ENDBRANCH  11  24
BRANCH   3  26
ATOM     26  O   UNL     1      25.293  13.219  32.327  0.00  0.00    +0.000 OA
BRANCH  26  32
ATOM     27  O   UNL     1      25.562  11.025  31.595  0.00  0.00    +0.000 OA
ATOM     28  C   UNL     1      22.710  10.913  31.298  0.00  0.00    +0.000 C 
ATOM     29  C   UNL     1      23.696  10.042  30.486  0.00  0.00    +0.000 C 
ATOM     30  C   UNL     1      23.320  11.578  32.528  0.00  0.00    +0.000 C 
ATOM     31  C   UNL     1      25.032  10.760  30.302  0.00  0.00    +0.000 C 
ATOM     32  C   UNL     1      24.806  11.912  32.417  0.00  0.00    +0.000 C 
BRANCH  28  33
ATOM     33  O   UNL     1      21.595  10.097  31.714  0.00  0.00    +0.000 OA
ATOM     34  H   UNL     1      21.169   9.721  30.922  0.00  0.00    +0.000 HD
ENDBRANCH  28  33
BRANCH  29  35
ATOM     35  O   UNL     1      23.116   9.711  29.222  0.00  0.00    +0.000 OA
ATOM     36  H   UNL     1      23.489   8.863  28.923  0.00  0.00    +0.000 HD
ENDBRANCH  29  35
BRANCH  30  37
ATOM     37  O   UNL     1      22.544  12.670  33.027  0.00  0.00    +0.000 OA
ATOM     38  H   UNL     1      22.604  12.670  33.998  0.00  0.00    +0.000 HD
ENDBRANCH  30  37
BRANCH  31  39
ATOM     39  C   UNL     1      26.083   9.904  29.563  0.00  0.00    +0.000 C 
BRANCH  39  40
ATOM     40  O   UNL     1      25.581   8.595  29.274  0.00  0.00    +0.000 OA
ATOM     41  H   UNL     1      24.681   8.568  29.647  0.00  0.00    +0.000 HD
ENDBRANCH  39  40
ENDBRANCH  31  39
ENDBRANCH  26  32
ENDBRANCH   3  26
TORSDOF 12
ENDMDL
