REMARK  Name = 5318574
REMARK  12 active torsions:
REMARK  status: ('A' for Active; 'I' for Inactive)
REMARK    1  A    between atoms: O_2  and  C_17
REMARK    2  A    between atoms: O_2  and  C_19
REMARK    3  A    between atoms: O_3  and  C_13
REMARK    4  A    between atoms: O_4  and  C_14
REMARK    5  A    between atoms: O_5  and  C_15
REMARK    6  A    between atoms: O_6  and  C_18
REMARK    7  A    between atoms: O_9  and  C_25
REMARK    8  A    between atoms: O_10  and  C_30
REMARK    9  A    between atoms: O_11  and  C_31
REMARK   10  A    between atoms: O_12  and  C_33
REMARK   11  A    between atoms: C_16  and  C_18
REMARK   12  A    between atoms: C_20  and  C_24
REMARK                            x       y       z     vdW  Elec       q    Type
REMARK                         _______ _______ _______ _____ _____    ______ ____
ROOT
ATOM      1  O   UNL     1       1.477  -0.281  -1.983  0.00  0.00    +0.000 OA
ATOM      2  O   UNL     1      -1.216   1.748  -4.284  0.00  0.00    +0.000 OA
ATOM      3  C   UNL     1      -0.515   1.101  -2.107  0.00  0.00    +0.000 A 
ATOM      4  C   UNL     1       0.376   0.359  -1.329  0.00  0.00    +0.000 A 
ATOM      5  C   UNL     1      -0.401   1.109  -3.614  0.00  0.00    +0.000 A 
ATOM      6  C   UNL     1       0.705   0.374  -4.223  0.00  0.00    +0.000 A 
ATOM      7  C   UNL     1       1.610  -0.264  -3.369  0.00  0.00    +0.000 A 
ATOM      8  C   UNL     1       0.864   0.324  -5.630  0.00  0.00    +0.000 A 
ATOM      9  C   UNL     1       2.679  -0.944  -3.946  0.00  0.00    +0.000 A 
ATOM     10  C   UNL     1       1.936  -0.372  -6.191  0.00  0.00    +0.000 A 
ATOM     11  C   UNL     1       2.836  -0.993  -5.340  0.00  0.00    +0.000 A 
ENDROOT
BRANCH   4  12
ATOM     12  C   UNL     1       0.452   0.122   0.257  0.00  0.00    +0.000 A 
ATOM     13  C   UNL     1       1.664   0.205   0.974  0.00  0.00    +0.000 A 
ATOM     14  C   UNL     1      -0.641  -0.189   1.119  0.00  0.00    +0.000 A 
ATOM     15  C   UNL     1       1.693   0.163   2.402  0.00  0.00    +0.000 A 
ATOM     16  C   UNL     1      -0.653  -0.061   2.522  0.00  0.00    +0.000 A 
ATOM     17  C   UNL     1       0.535   0.104   3.167  0.00  0.00    +0.000 A 
BRANCH  15  18
ATOM     18  O   UNL     1       2.862   0.168   3.114  0.00  0.00    +0.000 OA
ATOM     19  H   UNL     1       3.594  -0.008   2.506  0.00  0.00    +0.000 HD
ENDBRANCH  15  18
BRANCH  17  20
ATOM     20  O   UNL     1       0.540   0.124   4.529  0.00  0.00    +0.000 OA
ATOM     21  H   UNL     1       1.479   0.132   4.793  0.00  0.00    +0.000 HD
ENDBRANCH  17  20
ENDBRANCH   4  12
BRANCH   8  22
ATOM     22  O   UNL     1      -0.007   0.923  -6.490  0.00  0.00    +0.000 OA
ATOM     23  H   UNL     1       0.271   0.808  -7.417  0.00  0.00    +0.000 HD
ENDBRANCH   8  22
BRANCH  11  24
ATOM     24  O   UNL     1       3.905  -1.672  -5.860  0.00  0.00    +0.000 OA
ATOM     25  H   UNL     1       3.878  -1.622  -6.832  0.00  0.00    +0.000 HD
ENDBRANCH  11  24
BRANCH   3  26
ATOM     26  O   UNL     1      -1.671   1.822  -1.744  0.00  0.00    +0.000 OA
BRANCH  26  32
ATOM     27  O   UNL     1      -2.560  -0.215  -1.049  0.00  0.00    +0.000 OA
ATOM     28  C   UNL     1      -4.925   1.225  -0.293  0.00  0.00    +0.000 C 
ATOM     29  C   UNL     1      -4.914  -0.272  -0.679  0.00  0.00    +0.000 C 
ATOM     30  C   UNL     1      -3.549   1.808   0.017  0.00  0.00    +0.000 C 
ATOM     31  C   UNL     1      -3.790  -0.570  -1.670  0.00  0.00    +0.000 C 
ATOM     32  C   UNL     1      -2.387   1.166  -0.738  0.00  0.00    +0.000 C 
BRANCH  28  33
ATOM     33  O   UNL     1      -5.777   1.407   0.857  0.00  0.00    +0.000 OA
ATOM     34  H   UNL     1      -5.641   0.660   1.469  0.00  0.00    +0.000 HD
ENDBRANCH  28  33
BRANCH  29  35
ATOM     35  O   UNL     1      -6.184  -0.637  -1.223  0.00  0.00    +0.000 OA
ATOM     36  H   UNL     1      -6.478   0.069  -1.825  0.00  0.00    +0.000 HD
ENDBRANCH  29  35
BRANCH  30  37
ATOM     37  O   UNL     1      -3.514   3.236  -0.026  0.00  0.00    +0.000 OA
ATOM     38  H   UNL     1      -3.497   3.514  -0.958  0.00  0.00    +0.000 HD
ENDBRANCH  30  37
BRANCH  31  39
ATOM     39  C   UNL     1      -3.683  -2.067  -2.033  0.00  0.00    +0.000 C 
BRANCH  39  40
ATOM     40  O   UNL     1      -3.184  -2.836  -0.934  0.00  0.00    +0.000 OA
ATOM     41  H   UNL     1      -2.301  -2.474  -0.736  0.00  0.00    +0.000 HD
ENDBRANCH  39  40
ENDBRANCH  31  39
ENDBRANCH  26  32
ENDBRANCH   3  26
TORSDOF 12
