REMARK  Name = 
REMARK  2 active torsions:
REMARK  status: ('A' for Active; 'I' for Inactive)
REMARK    1  A    between atoms: C_1  and  C_2
REMARK    2  A    between atoms: C_1  and  O_3
REMARK                            x       y       z     vdW  Elec       q    Type
REMARK                         _______ _______ _______ _____ _____    ______ ____
ROOT
ATOM      1  C   UNL     1       0.998  -0.077   0.052  0.00  0.00    +0.302 C 
ATOM      2  C   UNL     1       0.193   1.017   0.689  0.00  0.00    +0.136 C 
ATOM      3  O   UNL     1       2.219  -0.095   0.041  0.00  0.00    -0.251 OA
ENDROOT
BRANCH   1   4
ATOM      4  O   UNL     1       0.255  -1.050  -0.515  0.00  0.00    -0.481 OA
ATOM      5  H   UNL     1      -0.709  -0.922  -0.441  0.00  0.00    +0.295 HD
ENDBRANCH   1   4
TORSDOF 1
