REMARK  Name = 
REMARK  8 active torsions:
REMARK  status: ('A' for Active; 'I' for Inactive)
REMARK    1  A    between atoms: C_1  and  C_4
REMARK    2  A    between atoms: C_2  and  C_6
REMARK    3  A    between atoms: C_4  and  O_8
REMARK    4  A    between atoms: C_5  and  O_10
REMARK    5  A    between atoms: O_8  and  P_12
REMARK    6  A    between atoms: C_9  and  C_13
REMARK    7  A    between atoms: P_12  and  O_14
REMARK    8  A    between atoms: P_12  and  O_15
REMARK                            x       y       z     vdW  Elec       q    Type
REMARK                         _______ _______ _______ _____ _____    ______ ____
ROOT
ATOM      1  C   UNL     1       1.593   0.982   0.090  0.00  0.00    +0.010 A 
ATOM      2  C   UNL     1       0.266   1.452   0.047  0.00  0.00    +0.064 A 
ATOM      3  C   UNL     1       1.748  -0.405   0.099  0.00  0.00    +0.117 A 
ATOM      4  C   UNL     1      -0.803   0.534   0.017  0.00  0.00    +0.148 A 
ATOM      5  N   UNL     1       0.743  -1.302   0.056  0.00  0.00    -0.256 NA
ATOM      6  C   UNL     1      -0.526  -0.829   0.025  0.00  0.00    +0.080 A 
ATOM      7  C   UNL     1      -1.600  -1.874   0.010  0.00  0.00    +0.069 C 
ENDROOT
BRANCH   2   8
ATOM      8  C   UNL     1      -0.070   2.903   0.021  0.00  0.00    +0.262 C 
ATOM      9  O   UNL     1      -1.227   3.289   0.012  0.00  0.00    -0.296 OA
ENDBRANCH   2   8
BRANCH   4  10
ATOM     10  O   UNL     1      -2.118   0.919  -0.007  0.00  0.00    -0.504 OA
ATOM     11  H   UNL     1      -2.168   1.902   0.026  0.00  0.00    +0.292 HD
ENDBRANCH   4  10
BRANCH   1  12
ATOM     12  C   UNL     1       2.838   1.822   0.214  0.00  0.00    +0.210 C 
BRANCH  12  13
ATOM     13  O   UNL     1       3.936   1.147  -0.408  0.00  0.00    -0.282 OA
BRANCH  13  14
ATOM     14  P   UNL     1       5.440   1.999  -0.336  0.00  0.00    +0.473 P 
ATOM     15  O   UNL     1       6.786   2.761  -0.272  0.00  0.00    -0.228 OA
BRANCH  14  16
ATOM     16  O   UNL     1       5.633   1.177   1.065  0.00  0.00    -0.303 OA
ATOM     17  H   UNL     1       5.950   0.287   0.819  0.00  0.00    +0.222 HD
ENDBRANCH  14  16
BRANCH  14  18
ATOM     18  O   UNL     1       6.000   0.778  -1.272  0.00  0.00    -0.303 OA
ATOM     19  H   UNL     1       5.757   0.905  -2.207  0.00  0.00    +0.222 HD
ENDBRANCH  14  18
ENDBRANCH  13  14
ENDBRANCH  12  13
ENDBRANCH   1  12
TORSDOF 7
