REMARK  Name = 
REMARK  7 active torsions:
REMARK  status: ('A' for Active; 'I' for Inactive)
REMARK    1  A    between atoms: C_1  and  O_4
REMARK    2  A    between atoms: C_3  and  O_7
REMARK    3  A    between atoms: O_4  and  C_8
REMARK    4  A    between atoms: C_5  and  C_10
REMARK    5  A    between atoms: C_8  and  C_11
REMARK    6  A    between atoms: C_10  and  O_13
REMARK    7  A    between atoms: C_11  and  O_16
REMARK                            x       y       z     vdW  Elec       q    Type
REMARK                         _______ _______ _______ _____ _____    ______ ____
ROOT
ATOM      1  C   UNL     1       0.219  -1.391   0.051  0.00  0.00    +0.230 C 
ATOM      2  C   UNL     1       1.320  -0.350   0.036  0.00  0.00    +0.034 C 
ATOM      3  C   UNL     1      -1.217  -0.805  -0.061  0.00  0.00    +0.182 C 
ATOM      4  C   UNL     1       1.099   0.981   0.006  0.00  0.00    +0.058 C 
ATOM      5  C   UNL     1      -1.335   0.681  -0.050  0.00  0.00    +0.009 C 
ATOM      6  C   UNL     1      -0.266   1.487  -0.001  0.00  0.00    +0.013 C 
ENDROOT
BRANCH   3   7
ATOM      7  O   UNL     1      -1.777  -1.307  -1.282  0.00  0.00    -0.384 OA
ATOM      8  H   UNL     1      -1.592  -0.648  -1.980  0.00  0.00    +0.210 HD
ENDBRANCH   3   7
BRANCH   4   9
ATOM      9  C   UNL     1       2.202   1.989  -0.090  0.00  0.00    +0.337 C 
ATOM     10  O   UNL     1       2.035   3.114  -0.541  0.00  0.00    -0.245 OA
BRANCH   9  11
ATOM     11  O   UNL     1       3.396   1.582   0.388  0.00  0.00    -0.477 OA
ATOM     12  H   UNL     1       3.383   0.746   0.884  0.00  0.00    +0.295 HD
ENDBRANCH   9  11
ENDBRANCH   4   9
BRANCH   1  13
ATOM     13  O   UNL     1       0.310  -2.102   1.283  0.00  0.00    -0.475 OA
BRANCH  13  14
ATOM     14  C   UNL     1       0.125  -3.477   1.312  0.00  0.00    +0.198 C 
ATOM     15  C   UNL     1       0.924  -4.166   2.143  0.00  0.00    +0.065 C 
BRANCH  14  16
ATOM     16  C   UNL     1      -0.974  -4.291   0.681  0.00  0.00    +0.371 C 
ATOM     17  O   UNL     1      -1.294  -5.387   1.130  0.00  0.00    -0.242 OA
BRANCH  16  18
ATOM     18  O   UNL     1      -1.580  -3.843  -0.429  0.00  0.00    -0.475 OA
ATOM     19  H   UNL     1      -1.482  -2.940  -0.782  0.00  0.00    +0.296 HD
ENDBRANCH  16  18
ENDBRANCH  14  16
ENDBRANCH  13  14
ENDBRANCH   1  13
TORSDOF 7
