REMARK  Name = 
REMARK  5 active torsions:
REMARK  status: ('A' for Active; 'I' for Inactive)
REMARK    1  A    between atoms: N9_1  and  C1*_3
REMARK    2  A    between atoms: C2*_8  and  O2*_14
REMARK    3  A    between atoms: C4*_12  and  C5*_17
REMARK    4  A    between atoms: C3*_13  and  O3*_18
REMARK    5  A    between atoms: C5*_17  and  O5*_19
REMARK                            x       y       z     vdW  Elec       q    Type
REMARK                         _______ _______ _______ _____ _____    ______ ____
ROOT
ATOM      1  N9    A A   1       1.515   1.088   0.055  0.00  0.00    -0.286 N 
ATOM      2  C4    A A   1       0.216   0.671   0.164  0.00  0.00    +0.167 A 
ATOM      3  C8    A A   1       2.299  -0.033  -0.053  0.00  0.00    +0.203 A 
ATOM      4  C5    A A   1       0.281  -0.711   0.070  0.00  0.00    +0.147 A 
ATOM      5  N3    A A   1      -0.891   1.423   0.286  0.00  0.00    -0.216 NA
ATOM      6  N7    A A   1       1.587  -1.139  -0.038  0.00  0.00    -0.231 NA
ATOM      7  C6    A A   1      -0.940  -1.406   0.086  0.00  0.00    +0.147 A 
ATOM      8  C2    A A   1      -1.995   0.647   0.333  0.00  0.00    +0.225 A 
ATOM      9  N1    A A   1      -2.082  -0.699   0.245  0.00  0.00    -0.219 NA
ATOM     10  N6    A A   1      -1.028  -2.783  -0.057  0.00  0.00    -0.341 N 
ATOM     11  H61   A A   1      -0.162  -3.274   0.137  0.00  0.00    +0.144 HD
ATOM     12  H62   A A   1      -1.890  -3.164   0.304  0.00  0.00    +0.144 HD
ENDROOT
BRANCH   1  13
ATOM     13  C1*   A A   1       2.001   2.446  -0.066  0.00  0.00    +0.253 C 
ATOM     14  O4*   A A   1       1.601   3.229   1.078  0.00  0.00    -0.346 OA
ATOM     15  C2*   A A   1       1.515   3.175  -1.316  0.00  0.00    +0.195 C 
ATOM     16  C4*   A A   1       1.251   4.561   0.614  0.00  0.00    +0.177 C 
ATOM     17  C3*   A A   1       1.610   4.624  -0.869  0.00  0.00    +0.178 C 
BRANCH  15  18
ATOM     18  O2*   A A   1       2.345   2.920  -2.450  0.00  0.00    -0.385 OA
ATOM     19  H2*   A A   1       2.986   3.662  -2.491  0.00  0.00    +0.210 HD
ENDBRANCH  15  18
BRANCH  17  20
ATOM     20  O3*   A A   1       2.969   5.054  -1.079  0.00  0.00    -0.386 OA
ATOM     21  H3*   A A   1       3.477   4.932  -0.257  0.00  0.00    +0.210 HD
ENDBRANCH  17  20
BRANCH  16  22
ATOM     22  C5*   A A   1      -0.234   4.808   0.884  0.00  0.00    +0.190 C 
BRANCH  22  23
ATOM     23  O5*   A A   1      -0.487   4.721   2.284  0.00  0.00    -0.392 OA
ATOM     24  H5*   A A   1      -0.174   3.838   2.559  0.00  0.00    +0.210 HD
ENDBRANCH  22  23
ENDBRANCH  16  22
ENDBRANCH   1  13
TORSDOF 5
