MODEL 1
REMARK VINA RESULT:    -8.863      0.000      0.000
REMARK INTER + INTRA:         -11.379
REMARK INTER:                 -11.194
REMARK INTRA:                  -0.185
REMARK UNBOUND:                -0.185
REMARK  Name = 14034712
REMARK  12 active torsions:
REMARK  status: ('A' for Active; 'I' for Inactive)
REMARK    1  A    between atoms: O_1  and  C_29
REMARK    2  A    between atoms: C_2  and  C_17
REMARK    3  A    between atoms: C_3  and  C_7
REMARK    4  A    between atoms: C_4  and  C_7
REMARK    5  A    between atoms: C_6  and  C_16
REMARK    6  A    between atoms: C_6  and  C_19
REMARK    7  A    between atoms: C_7  and  C_20
REMARK    8  A    between atoms: C_15  and  C_25
REMARK    9  A    between atoms: C_16  and  C_23
REMARK   10  A    between atoms: C_16  and  C_26
REMARK   11  A    between atoms: C_23  and  C_30
REMARK   12  A    between atoms: C_23  and  C_31
REMARK                            x       y       z     vdW  Elec       q    Type
REMARK                         _______ _______ _______ _____ _____    ______ ____
ROOT
ATOM      1  C   UNL     1      24.259  12.519  32.262  0.00  0.00    +0.000 C 
ATOM      2  C   UNL     1      22.815  11.922  32.161  0.00  0.00    +0.000 C 
ATOM      3  C   UNL     1      24.227  13.166  33.671  0.00  0.00    +0.000 C 
ATOM      4  C   UNL     1      25.604  13.694  34.097  0.00  0.00    +0.000 C 
ATOM      5  C   UNL     1      26.111  14.744  33.066  0.00  0.00    +0.000 C 
ATOM      6  C   UNL     1      22.491  11.498  33.627  0.00  0.00    +0.000 C 
ATOM      7  C   UNL     1      23.572  12.101  34.535  0.00  0.00    +0.000 C 
ATOM      8  C   UNL     1      24.546  13.664  31.279  0.00  0.00    +0.000 C 
ATOM      9  C   UNL     1      25.903  14.329  31.580  0.00  0.00    +0.000 C 
ATOM     10  C   UNL     1      27.595  15.195  33.400  0.00  0.00    +0.000 C 
ATOM     11  C   UNL     1      25.367  11.447  32.138  0.00  0.00    +0.000 C 
ATOM     12  C   UNL     1      25.586  14.306  35.508  0.00  0.00    +0.000 C 
ATOM     13  C   UNL     1      27.757  15.446  34.907  0.00  0.00    +0.000 C 
ATOM     14  C   UNL     1      27.882  16.522  32.637  0.00  0.00    +0.000 C 
ATOM     15  C   UNL     1      26.844  15.060  35.822  0.00  0.00    +0.000 C 
ATOM     16  C   UNL     1      28.625  14.122  32.978  0.00  0.00    +0.000 C 
ATOM     17  C   UNL     1      29.012  16.173  35.343  0.00  0.00    +0.000 C 
ATOM     18  C   UNL     1      29.178  17.216  33.052  0.00  0.00    +0.000 C 
ATOM     19  C   UNL     1      29.220  17.469  34.556  0.00  0.00    +0.000 C 
ENDROOT
BRANCH  19  20
ATOM     20  O   UNL     1      30.483  18.031  34.905  0.00  0.00    +0.000 OA
ATOM     21  H   UNL     1      30.341  18.974  35.090  0.00  0.00    +0.000 HD
ENDBRANCH  19  20
BRANCH   2  22
ATOM     22  C   UNL     1      22.468  10.829  31.071  0.00  0.00    +0.000 C 
ATOM     23  C   UNL     1      23.577   9.813  30.817  0.00  0.00    +0.000 C 
BRANCH  22  24
ATOM     24  C   UNL     1      21.168  10.121  31.456  0.00  0.00    +0.000 C 
ATOM     25  C   UNL     1      20.303   9.111  30.646  0.00  0.00    +0.000 C 
ATOM     26  C   UNL     1      19.901  10.577  30.800  0.00  0.00    +0.000 C 
ATOM     27  C   UNL     1      20.573   8.709  29.205  0.00  0.00    +0.000 C 
BRANCH  25  28
ATOM     28  C   UNL     1      19.568   7.995  31.466  0.00  0.00    +0.000 C 
ATOM     29  C   UNL     1      19.605   6.635  30.748  0.00  0.00    +0.000 C 
BRANCH  28  30
ATOM     30  C   UNL     1      18.103   8.390  31.853  0.00  0.00    +0.000 C 
ATOM     31  C   UNL     1      17.056   7.738  30.931  0.00  0.00    +0.000 C 
ATOM     32  C   UNL     1      17.729   8.018  33.289  0.00  0.00    +0.000 C 
ENDBRANCH  28  30
ENDBRANCH  25  28
ENDBRANCH  22  24
ENDBRANCH   2  22
TORSDOF 5
ENDMDL
MODEL 2
REMARK VINA RESULT:    -7.954      3.092      5.381
REMARK INTER + INTRA:         -10.231
REMARK INTER:                  -8.930
REMARK INTRA:                  -1.302
REMARK UNBOUND:                -0.185
REMARK  Name = 14034712
REMARK  12 active torsions:
REMARK  status: ('A' for Active; 'I' for Inactive)
REMARK    1  A    between atoms: O_1  and  C_29
REMARK    2  A    between atoms: C_2  and  C_17
REMARK    3  A    between atoms: C_3  and  C_7
REMARK    4  A    between atoms: C_4  and  C_7
REMARK    5  A    between atoms: C_6  and  C_16
REMARK    6  A    between atoms: C_6  and  C_19
REMARK    7  A    between atoms: C_7  and  C_20
REMARK    8  A    between atoms: C_15  and  C_25
REMARK    9  A    between atoms: C_16  and  C_23
REMARK   10  A    between atoms: C_16  and  C_26
REMARK   11  A    between atoms: C_23  and  C_30
REMARK   12  A    between atoms: C_23  and  C_31
REMARK                            x       y       z     vdW  Elec       q    Type
REMARK                         _______ _______ _______ _____ _____    ______ ____
ROOT
ATOM      1  C   UNL     1      25.622  12.721  33.145  0.00  0.00    +0.000 C 
ATOM      2  C   UNL     1      24.923  12.404  31.779  0.00  0.00    +0.000 C 
ATOM      3  C   UNL     1      25.720  14.268  33.087  0.00  0.00    +0.000 C 
ATOM      4  C   UNL     1      26.232  14.865  34.406  0.00  0.00    +0.000 C 
ATOM      5  C   UNL     1      27.633  14.277  34.746  0.00  0.00    +0.000 C 
ATOM      6  C   UNL     1      23.972  13.622  31.563  0.00  0.00    +0.000 C 
ATOM      7  C   UNL     1      24.346  14.693  32.597  0.00  0.00    +0.000 C 
ATOM      8  C   UNL     1      27.065  12.211  33.257  0.00  0.00    +0.000 C 
ATOM      9  C   UNL     1      27.746  12.738  34.534  0.00  0.00    +0.000 C 
ATOM     10  C   UNL     1      28.119  14.761  36.176  0.00  0.00    +0.000 C 
ATOM     11  C   UNL     1      24.810  12.234  34.367  0.00  0.00    +0.000 C 
ATOM     12  C   UNL     1      26.300  16.401  34.367  0.00  0.00    +0.000 C 
ATOM     13  C   UNL     1      27.841  16.261  36.362  0.00  0.00    +0.000 C 
ATOM     14  C   UNL     1      29.655  14.520  36.274  0.00  0.00    +0.000 C 
ATOM     15  C   UNL     1      27.046  16.971  35.536  0.00  0.00    +0.000 C 
ATOM     16  C   UNL     1      27.401  13.995  37.310  0.00  0.00    +0.000 C 
ATOM     17  C   UNL     1      28.518  16.935  37.536  0.00  0.00    +0.000 C 
ATOM     18  C   UNL     1      30.314  15.164  37.492  0.00  0.00    +0.000 C 
ATOM     19  C   UNL     1      30.024  16.661  37.558  0.00  0.00    +0.000 C 
ENDROOT
BRANCH  19  20
ATOM     20  O   UNL     1      30.579  17.197  38.758  0.00  0.00    +0.000 OA
ATOM     21  H   UNL     1      31.534  17.306  38.613  0.00  0.00    +0.000 HD
ENDBRANCH  19  20
BRANCH   2  22
ATOM     22  C   UNL     1      24.251  10.994  31.526  0.00  0.00    +0.000 C 
ATOM     23  C   UNL     1      23.117  11.008  30.506  0.00  0.00    +0.000 C 
BRANCH  22  24
ATOM     24  C   UNL     1      25.325   9.983  31.123  0.00  0.00    +0.000 C 
ATOM     25  C   UNL     1      26.493  10.119  30.102  0.00  0.00    +0.000 C 
ATOM     26  C   UNL     1      25.216   9.346  29.771  0.00  0.00    +0.000 C 
ATOM     27  C   UNL     1      26.715  11.327  29.206  0.00  0.00    +0.000 C 
BRANCH  25  28
ATOM     28  C   UNL     1      27.819   9.355  30.441  0.00  0.00    +0.000 C 
ATOM     29  C   UNL     1      28.995  10.318  30.674  0.00  0.00    +0.000 C 
BRANCH  28  30
ATOM     30  C   UNL     1      28.183   8.267  29.373  0.00  0.00    +0.000 C 
ATOM     31  C   UNL     1      29.335   8.710  28.453  0.00  0.00    +0.000 C 
ATOM     32  C   UNL     1      28.587   6.925  29.984  0.00  0.00    +0.000 C 
ENDBRANCH  28  30
ENDBRANCH  25  28
ENDBRANCH  22  24
ENDBRANCH   2  22
TORSDOF 5
ENDMDL
MODEL 3
REMARK VINA RESULT:    -7.868      3.220      9.952
REMARK INTER + INTRA:         -10.122
REMARK INTER:                  -9.078
REMARK INTRA:                  -1.044
REMARK UNBOUND:                -0.185
REMARK  Name = 14034712
REMARK  12 active torsions:
REMARK  status: ('A' for Active; 'I' for Inactive)
REMARK    1  A    between atoms: O_1  and  C_29
REMARK    2  A    between atoms: C_2  and  C_17
REMARK    3  A    between atoms: C_3  and  C_7
REMARK    4  A    between atoms: C_4  and  C_7
REMARK    5  A    between atoms: C_6  and  C_16
REMARK    6  A    between atoms: C_6  and  C_19
REMARK    7  A    between atoms: C_7  and  C_20
REMARK    8  A    between atoms: C_15  and  C_25
REMARK    9  A    between atoms: C_16  and  C_23
REMARK   10  A    between atoms: C_16  and  C_26
REMARK   11  A    between atoms: C_23  and  C_30
REMARK   12  A    between atoms: C_23  and  C_31
REMARK                            x       y       z     vdW  Elec       q    Type
REMARK                         _______ _______ _______ _____ _____    ______ ____
ROOT
ATOM      1  C   UNL     1      26.880  13.916  33.291  0.00  0.00    +0.000 C 
ATOM      2  C   UNL     1      27.758  15.175  33.605  0.00  0.00    +0.000 C 
ATOM      3  C   UNL     1      26.070  14.406  32.063  0.00  0.00    +0.000 C 
ATOM      4  C   UNL     1      25.228  13.283  31.441  0.00  0.00    +0.000 C 
ATOM      5  C   UNL     1      24.245  12.706  32.502  0.00  0.00    +0.000 C 
ATOM      6  C   UNL     1      28.038  15.786  32.196  0.00  0.00    +0.000 C 
ATOM      7  C   UNL     1      27.117  15.080  31.192  0.00  0.00    +0.000 C 
ATOM      8  C   UNL     1      25.843  13.577  34.372  0.00  0.00    +0.000 C 
ATOM      9  C   UNL     1      24.889  12.465  33.899  0.00  0.00    +0.000 C 
ATOM     10  C   UNL     1      23.470  11.446  31.931  0.00  0.00    +0.000 C 
ATOM     11  C   UNL     1      27.719  12.658  32.972  0.00  0.00    +0.000 C 
ATOM     12  C   UNL     1      24.447  13.754  30.201  0.00  0.00    +0.000 C 
ATOM     13  C   UNL     1      22.992  11.711  30.495  0.00  0.00    +0.000 C 
ATOM     14  C   UNL     1      22.226  11.191  32.834  0.00  0.00    +0.000 C 
ATOM     15  C   UNL     1      23.424  12.752  29.754  0.00  0.00    +0.000 C 
ATOM     16  C   UNL     1      24.365  10.186  31.914  0.00  0.00    +0.000 C 
ATOM     17  C   UNL     1      21.980  10.739  29.926  0.00  0.00    +0.000 C 
ATOM     18  C   UNL     1      21.241  10.169  32.270  0.00  0.00    +0.000 C 
ATOM     19  C   UNL     1      20.785  10.549  30.864  0.00  0.00    +0.000 C 
ENDROOT
BRANCH  19  20
ATOM     20  O   UNL     1      19.943   9.521  30.347  0.00  0.00    +0.000 OA
ATOM     21  H   UNL     1      19.329   9.264  31.054  0.00  0.00    +0.000 HD
ENDBRANCH  19  20
BRANCH   2  22
ATOM     22  C   UNL     1      29.034  15.057  34.533  0.00  0.00    +0.000 C 
ATOM     23  C   UNL     1      30.365  15.100  33.788  0.00  0.00    +0.000 C 
BRANCH  22  24
ATOM     24  C   UNL     1      28.984  16.143  35.608  0.00  0.00    +0.000 C 
ATOM     25  C   UNL     1      28.230  16.168  36.969  0.00  0.00    +0.000 C 
ATOM     26  C   UNL     1      27.718  16.932  35.749  0.00  0.00    +0.000 C 
ATOM     27  C   UNL     1      27.276  15.083  37.444  0.00  0.00    +0.000 C 
BRANCH  25  28
ATOM     28  C   UNL     1      28.927  16.930  38.149  0.00  0.00    +0.000 C 
ATOM     29  C   UNL     1      28.786  18.455  38.012  0.00  0.00    +0.000 C 
BRANCH  28  30
ATOM     30  C   UNL     1      30.426  16.515  38.338  0.00  0.00    +0.000 C 
ATOM     31  C   UNL     1      31.162  17.418  39.346  0.00  0.00    +0.000 C 
ATOM     32  C   UNL     1      30.605  15.074  38.815  0.00  0.00    +0.000 C 
ENDBRANCH  28  30
ENDBRANCH  25  28
ENDBRANCH  22  24
ENDBRANCH   2  22
TORSDOF 5
ENDMDL
MODEL 4
REMARK VINA RESULT:    -7.864      3.656      9.771
REMARK INTER + INTRA:         -10.117
REMARK INTER:                  -9.903
REMARK INTRA:                  -0.215
REMARK UNBOUND:                -0.185
REMARK  Name = 14034712
REMARK  12 active torsions:
REMARK  status: ('A' for Active; 'I' for Inactive)
REMARK    1  A    between atoms: O_1  and  C_29
REMARK    2  A    between atoms: C_2  and  C_17
REMARK    3  A    between atoms: C_3  and  C_7
REMARK    4  A    between atoms: C_4  and  C_7
REMARK    5  A    between atoms: C_6  and  C_16
REMARK    6  A    between atoms: C_6  and  C_19
REMARK    7  A    between atoms: C_7  and  C_20
REMARK    8  A    between atoms: C_15  and  C_25
REMARK    9  A    between atoms: C_16  and  C_23
REMARK   10  A    between atoms: C_16  and  C_26
REMARK   11  A    between atoms: C_23  and  C_30
REMARK   12  A    between atoms: C_23  and  C_31
REMARK                            x       y       z     vdW  Elec       q    Type
REMARK                         _______ _______ _______ _____ _____    ______ ____
ROOT
ATOM      1  C   UNL     1      27.780  14.728  33.577  0.00  0.00    +0.000 C 
ATOM      2  C   UNL     1      28.295  15.513  34.832  0.00  0.00    +0.000 C 
ATOM      3  C   UNL     1      26.274  14.571  33.910  0.00  0.00    +0.000 C 
ATOM      4  C   UNL     1      25.484  13.963  32.742  0.00  0.00    +0.000 C 
ATOM      5  C   UNL     1      26.072  12.570  32.372  0.00  0.00    +0.000 C 
ATOM      6  C   UNL     1      27.087  16.425  35.212  0.00  0.00    +0.000 C 
ATOM      7  C   UNL     1      25.873  15.952  34.401  0.00  0.00    +0.000 C 
ATOM      8  C   UNL     1      28.334  13.302  33.448  0.00  0.00    +0.000 C 
ATOM      9  C   UNL     1      27.628  12.530  32.317  0.00  0.00    +0.000 C 
ATOM     10  C   UNL     1      25.373  11.986  31.074  0.00  0.00    +0.000 C 
ATOM     11  C   UNL     1      28.009  15.489  32.251  0.00  0.00    +0.000 C 
ATOM     12  C   UNL     1      23.983  13.836  33.053  0.00  0.00    +0.000 C 
ATOM     13  C   UNL     1      23.852  12.194  31.140  0.00  0.00    +0.000 C 
ATOM     14  C   UNL     1      25.668  10.458  31.009  0.00  0.00    +0.000 C 
ATOM     15  C   UNL     1      23.256  13.004  32.038  0.00  0.00    +0.000 C 
ATOM     16  C   UNL     1      25.895  12.670  29.789  0.00  0.00    +0.000 C 
ATOM     17  C   UNL     1      23.018  11.426  30.136  0.00  0.00    +0.000 C 
ATOM     18  C   UNL     1      24.856   9.707  29.955  0.00  0.00    +0.000 C 
ATOM     19  C   UNL     1      23.358   9.934  30.138  0.00  0.00    +0.000 C 
ENDROOT
BRANCH  19  20
ATOM     20  O   UNL     1      22.651   9.291  29.079  0.00  0.00    +0.000 OA
ATOM     21  H   UNL     1      23.312   8.917  28.473  0.00  0.00    +0.000 HD
ENDBRANCH  19  20
BRANCH   2  22
ATOM     22  C   UNL     1      29.692  16.255  34.802  0.00  0.00    +0.000 C 
ATOM     23  C   UNL     1      29.604  17.764  34.603  0.00  0.00    +0.000 C 
BRANCH  22  24
ATOM     24  C   UNL     1      30.471  15.924  36.076  0.00  0.00    +0.000 C 
ATOM     25  C   UNL     1      30.201  16.347  37.550  0.00  0.00    +0.000 C 
ATOM     26  C   UNL     1      31.284  17.015  36.703  0.00  0.00    +0.000 C 
ATOM     27  C   UNL     1      29.100  17.303  37.983  0.00  0.00    +0.000 C 
BRANCH  25  28
ATOM     28  C   UNL     1      30.587  15.314  38.663  0.00  0.00    +0.000 C 
ATOM     29  C   UNL     1      32.111  15.182  38.822  0.00  0.00    +0.000 C 
BRANCH  28  30
ATOM     30  C   UNL     1      29.919  13.913  38.450  0.00  0.00    +0.000 C 
ATOM     31  C   UNL     1      28.472  14.025  37.935  0.00  0.00    +0.000 C 
ATOM     32  C   UNL     1      30.676  13.018  37.469  0.00  0.00    +0.000 C 
ENDBRANCH  28  30
ENDBRANCH  25  28
ENDBRANCH  22  24
ENDBRANCH   2  22
TORSDOF 5
ENDMDL
MODEL 5
REMARK VINA RESULT:    -7.711      3.245      5.009
REMARK INTER + INTRA:          -9.924
REMARK INTER:                  -8.738
REMARK INTRA:                  -1.185
REMARK UNBOUND:                -0.185
REMARK  Name = 14034712
REMARK  12 active torsions:
REMARK  status: ('A' for Active; 'I' for Inactive)
REMARK    1  A    between atoms: O_1  and  C_29
REMARK    2  A    between atoms: C_2  and  C_17
REMARK    3  A    between atoms: C_3  and  C_7
REMARK    4  A    between atoms: C_4  and  C_7
REMARK    5  A    between atoms: C_6  and  C_16
REMARK    6  A    between atoms: C_6  and  C_19
REMARK    7  A    between atoms: C_7  and  C_20
REMARK    8  A    between atoms: C_15  and  C_25
REMARK    9  A    between atoms: C_16  and  C_23
REMARK   10  A    between atoms: C_16  and  C_26
REMARK   11  A    between atoms: C_23  and  C_30
REMARK   12  A    between atoms: C_23  and  C_31
REMARK                            x       y       z     vdW  Elec       q    Type
REMARK                         _______ _______ _______ _____ _____    ______ ____
ROOT
ATOM      1  C   UNL     1      26.221  13.598  32.783  0.00  0.00    +0.000 C 
ATOM      2  C   UNL     1      25.812  12.761  31.523  0.00  0.00    +0.000 C 
ATOM      3  C   UNL     1      27.254  14.582  32.175  0.00  0.00    +0.000 C 
ATOM      4  C   UNL     1      27.704  15.646  33.186  0.00  0.00    +0.000 C 
ATOM      5  C   UNL     1      28.328  14.960  34.437  0.00  0.00    +0.000 C 
ATOM      6  C   UNL     1      25.886  13.796  30.357  0.00  0.00    +0.000 C 
ATOM      7  C   UNL     1      26.586  15.052  30.893  0.00  0.00    +0.000 C 
ATOM      8  C   UNL     1      26.977  12.804  33.857  0.00  0.00    +0.000 C 
ATOM      9  C   UNL     1      27.522  13.734  34.958  0.00  0.00    +0.000 C 
ATOM     10  C   UNL     1      28.663  16.027  35.560  0.00  0.00    +0.000 C 
ATOM     11  C   UNL     1      25.028  14.334  33.434  0.00  0.00    +0.000 C 
ATOM     12  C   UNL     1      28.703  16.646  32.580  0.00  0.00    +0.000 C 
ATOM     13  C   UNL     1      29.326  17.270  34.945  0.00  0.00    +0.000 C 
ATOM     14  C   UNL     1      29.657  15.376  36.568  0.00  0.00    +0.000 C 
ATOM     15  C   UNL     1      29.348  17.514  33.619  0.00  0.00    +0.000 C 
ATOM     16  C   UNL     1      27.390  16.484  36.310  0.00  0.00    +0.000 C 
ATOM     17  C   UNL     1      29.982  18.236  35.909  0.00  0.00    +0.000 C 
ATOM     18  C   UNL     1      30.270  16.356  37.566  0.00  0.00    +0.000 C 
ATOM     19  C   UNL     1      30.950  17.524  36.857  0.00  0.00    +0.000 C 
ENDROOT
BRANCH  19  20
ATOM     20  O   UNL     1      31.423  18.455  37.829  0.00  0.00    +0.000 OA
ATOM     21  H   UNL     1      32.098  19.005  37.400  0.00  0.00    +0.000 HD
ENDBRANCH  19  20
BRANCH   2  22
ATOM     22  C   UNL     1      24.499  11.878  31.534  0.00  0.00    +0.000 C 
ATOM     23  C   UNL     1      23.665  11.968  30.259  0.00  0.00    +0.000 C 
BRANCH  22  24
ATOM     24  C   UNL     1      24.866  10.425  31.835  0.00  0.00    +0.000 C 
ATOM     25  C   UNL     1      25.906   9.493  31.146  0.00  0.00    +0.000 C 
ATOM     26  C   UNL     1      24.407   9.372  30.873  0.00  0.00    +0.000 C 
ATOM     27  C   UNL     1      26.714   9.869  29.914  0.00  0.00    +0.000 C 
BRANCH  25  28
ATOM     28  C   UNL     1      26.634   8.449  32.061  0.00  0.00    +0.000 C 
ATOM     29  C   UNL     1      28.133   8.761  32.211  0.00  0.00    +0.000 C 
BRANCH  28  30
ATOM     30  C   UNL     1      26.409   6.970  31.594  0.00  0.00    +0.000 C 
ATOM     31  C   UNL     1      27.732   6.198  31.435  0.00  0.00    +0.000 C 
ATOM     32  C   UNL     1      25.528   6.158  32.543  0.00  0.00    +0.000 C 
ENDBRANCH  28  30
ENDBRANCH  25  28
ENDBRANCH  22  24
ENDBRANCH   2  22
TORSDOF 5
ENDMDL
