REMARK  Name = 14034712
REMARK  12 active torsions:
REMARK  status: ('A' for Active; 'I' for Inactive)
REMARK    1  A    between atoms: O_1  and  C_29
REMARK    2  A    between atoms: C_2  and  C_17
REMARK    3  A    between atoms: C_3  and  C_7
REMARK    4  A    between atoms: C_4  and  C_7
REMARK    5  A    between atoms: C_6  and  C_16
REMARK    6  A    between atoms: C_6  and  C_19
REMARK    7  A    between atoms: C_7  and  C_20
REMARK    8  A    between atoms: C_15  and  C_25
REMARK    9  A    between atoms: C_16  and  C_23
REMARK   10  A    between atoms: C_16  and  C_26
REMARK   11  A    between atoms: C_23  and  C_30
REMARK   12  A    between atoms: C_23  and  C_31
REMARK                            x       y       z     vdW  Elec       q    Type
REMARK                         _______ _______ _______ _____ _____    ______ ____
ROOT
ATOM      1  C   UNL     1      -3.068  -0.717   0.048  0.00  0.00    +0.000 C 
ATOM      2  C   UNL     1      -4.547  -0.490  -0.416  0.00  0.00    +0.000 C 
ATOM      3  C   UNL     1      -2.401   0.612  -0.391  0.00  0.00    +0.000 C 
ATOM      4  C   UNL     1      -0.951   0.722   0.101  0.00  0.00    +0.000 C 
ATOM      5  C   UNL     1      -0.114  -0.473  -0.444  0.00  0.00    +0.000 C 
ATOM      6  C   UNL     1      -4.763   1.042  -0.212  0.00  0.00    +0.000 C 
ATOM      7  C   UNL     1      -3.391   1.673   0.062  0.00  0.00    +0.000 C 
ATOM      8  C   UNL     1      -2.327  -1.830  -0.707  0.00  0.00    +0.000 C 
ATOM      9  C   UNL     1      -0.831  -1.851  -0.341  0.00  0.00    +0.000 C 
ATOM     10  C   UNL     1       1.348  -0.467   0.170  0.00  0.00    +0.000 C 
ATOM     11  C   UNL     1      -2.942  -0.958   1.570  0.00  0.00    +0.000 C 
ATOM     12  C   UNL     1      -0.294   2.053  -0.302  0.00  0.00    +0.000 C 
ATOM     13  C   UNL     1       1.931   0.955   0.165  0.00  0.00    +0.000 C 
ATOM     14  C   UNL     1       2.249  -1.381  -0.713  0.00  0.00    +0.000 C 
ATOM     15  C   UNL     1       1.187   2.056  -0.066  0.00  0.00    +0.000 C 
ATOM     16  C   UNL     1       1.356  -0.984   1.627  0.00  0.00    +0.000 C 
ATOM     17  C   UNL     1       3.417   1.080   0.427  0.00  0.00    +0.000 C 
ATOM     18  C   UNL     1       3.741  -1.281  -0.400  0.00  0.00    +0.000 C 
ATOM     19  C   UNL     1       4.234   0.161  -0.484  0.00  0.00    +0.000 C 
ENDROOT
BRANCH  19  20
ATOM     20  O   UNL     1       5.605   0.214  -0.094  0.00  0.00    +0.000 OA
ATOM     21  H   UNL     1       6.102  -0.360  -0.700  0.00  0.00    +0.000 HD
ENDBRANCH  19  20
BRANCH   2  22
ATOM     22  C   UNL     1      -5.716  -1.397   0.144  0.00  0.00    +0.000 C 
ATOM     23  C   UNL     1      -5.899  -1.332   1.657  0.00  0.00    +0.000 C 
BRANCH  22  24
ATOM     24  C   UNL     1      -7.021  -1.044  -0.571  0.00  0.00    +0.000 C 
ATOM     25  C   UNL     1      -8.439  -1.672  -0.431  0.00  0.00    +0.000 C 
ATOM     26  C   UNL     1      -7.527  -1.992  -1.615  0.00  0.00    +0.000 C 
ATOM     27  C   UNL     1      -8.761  -2.886   0.426  0.00  0.00    +0.000 C 
BRANCH  25  28
ATOM     28  C   UNL     1      -9.660  -0.705  -0.607  0.00  0.00    +0.000 C 
ATOM     29  C   UNL     1      -9.793  -0.204  -2.055  0.00  0.00    +0.000 C 
BRANCH  28  30
ATOM     30  C   UNL     1      -9.639   0.491   0.405  0.00  0.00    +0.000 C 
ATOM     31  C   UNL     1     -10.891   1.380   0.289  0.00  0.00    +0.000 C 
ATOM     32  C   UNL     1      -9.535   0.052   1.866  0.00  0.00    +0.000 C 
ENDBRANCH  28  30
ENDBRANCH  25  28
ENDBRANCH  22  24
ENDBRANCH   2  22
TORSDOF 5
