REMARK  Name = 
REMARK  11 active torsions:
REMARK  status: ('A' for Active; 'I' for Inactive)
REMARK    1  A    between atoms: N_1  and  C_3
REMARK    2  A    between atoms: C_8  and  O_14
REMARK    3  A    between atoms: C_12  and  C_17
REMARK    4  A    between atoms: C_13  and  O_18
REMARK    5  A    between atoms: C_17  and  S_19
REMARK    6  A    between atoms: S_19  and  C_20
REMARK    7  A    between atoms: S_19  and  C_21
REMARK    8  A    between atoms: C_20  and  C_22
REMARK    9  A    between atoms: C_22  and  CA_23
REMARK   10  A    between atoms: CA_23  and  C_24
REMARK   11  A    between atoms: CA_23  and  N_25
REMARK                            x       y       z     vdW  Elec       q    Type
REMARK                         _______ _______ _______ _____ _____    ______ ____
ROOT
ATOM      1  C   UNL     1       2.025   2.226   0.152  0.00  0.00    +0.253 C 
ATOM      2  O   UNL     1       1.505   3.096   1.178  0.00  0.00    -0.347 OA
ATOM      3  C   UNL     1       1.583   2.849  -1.173  0.00  0.00    +0.195 C 
ATOM      4  C   UNL     1       1.317   4.413   0.615  0.00  0.00    +0.161 C 
ATOM      5  C   UNL     1       1.755   4.326  -0.850  0.00  0.00    +0.177 C 
ENDROOT
BRANCH   1   6
ATOM      6  N   UNL     1       1.536   0.884   0.380  0.00  0.00    -0.286 N 
ATOM      7  C   UNL     1       2.196  -0.265   0.044  0.00  0.00    +0.167 A 
ATOM      8  C   UNL     1       0.379   0.524   1.022  0.00  0.00    +0.203 A 
ATOM      9  C   UNL     1       1.372  -1.289   0.487  0.00  0.00    +0.147 A 
ATOM     10  N   UNL     1       3.386  -0.390  -0.565  0.00  0.00    -0.216 NA
ATOM     11  N   UNL     1       0.239  -0.785   1.092  0.00  0.00    -0.231 NA
ATOM     12  C   UNL     1       1.829  -2.603   0.282  0.00  0.00    +0.147 A 
ATOM     13  C   UNL     1       3.718  -1.689  -0.714  0.00  0.00    +0.225 A 
ATOM     14  N   UNL     1       3.025  -2.787  -0.324  0.00  0.00    -0.219 NA
ATOM     15  N   UNL     1       1.127  -3.725   0.705  0.00  0.00    -0.341 N 
ATOM     16  H   UNL     1       0.465  -3.503   1.441  0.00  0.00    +0.144 HD
ATOM     17  H   UNL     1       1.752  -4.506   0.865  0.00  0.00    +0.144 HD
ENDBRANCH   1   6
BRANCH   3  18
ATOM     18  O   UNL     1       2.381   2.491  -2.299  0.00  0.00    -0.385 OA
ATOM     19  H   UNL     1       3.164   3.082  -2.259  0.00  0.00    +0.210 HD
ENDBRANCH   3  18
BRANCH   5  20
ATOM     20  O   UNL     1       3.162   4.618  -0.993  0.00  0.00    -0.386 OA
ATOM     21  H   UNL     1       3.379   5.367  -0.404  0.00  0.00    +0.210 HD
ENDBRANCH   5  20
BRANCH   4  22
ATOM     22  C   UNL     1      -0.142   4.867   0.753  0.00  0.00    +0.093 C 
BRANCH  22  23
ATOM     23  S   UNL     1      -0.723   4.948   2.488  0.00  0.00    -0.209 S 
ATOM     24  C   UNL     1      -2.094   6.106   2.178  0.00  0.00    +0.073 C 
BRANCH  23  25
ATOM     25  C   UNL     1       0.446   6.222   3.095  0.00  0.00    +0.061 C 
BRANCH  25  26
ATOM     26  C   UNL     1       0.190   6.546   4.567  0.00  0.00    +0.040 C 
BRANCH  26  27
ATOM     27  CA  UNL     1       1.178   7.579   5.116  0.00  0.00    +0.166 C 
BRANCH  27  28
ATOM     28  C   UNL     1       1.004   8.924   4.315  0.00  0.00    +0.372 C 
ATOM     29  O   UNL     1       0.145   9.725   4.790  0.00  0.00    -0.245 OA
ATOM     30  OXT UNL     1       1.746   9.039   3.297  0.00  0.00    -0.245 OA
ENDBRANCH  27  28
BRANCH  27  31
ATOM     31  N   UNL     1       0.883   7.821   6.566  0.00  0.00    -0.318 NA
ATOM     32  H1  UNL     1      -0.066   8.220   6.557  0.00  0.00    +0.119 HD
ATOM     33  H2  UNL     1       1.429   8.654   6.809  0.00  0.00    +0.119 HD
ENDBRANCH  27  31
ENDBRANCH  26  27
ENDBRANCH  25  26
ENDBRANCH  23  25
ENDBRANCH  22  23
ENDBRANCH   4  22
TORSDOF 10
