REMARK  Name = 
REMARK  9 active torsions:
REMARK  status: ('A' for Active; 'I' for Inactive)
REMARK    1  A    between atoms: O_1  and  C_2
REMARK    2  A    between atoms: C_2  and  C_3
REMARK    3  A    between atoms: C_3  and  C_4
REMARK    4  A    between atoms: C_4  and  C_5
REMARK    5  A    between atoms: C_4  and  C_10
REMARK    6  A    between atoms: C_4  and  O_13
REMARK    7  A    between atoms: C_5  and  C_6
REMARK    8  A    between atoms: C_6  and  O_7
REMARK    9  A    between atoms: C_10  and  O_11
REMARK                            x       y       z     vdW  Elec       q    Type
REMARK                         _______ _______ _______ _____ _____    ______ ____
ROOT
ATOM      1  C   UNL     1       2.131  -1.933  -1.461  0.00  0.00    +0.182 C 
ENDROOT
BRANCH   1   2
ATOM      2  C   UNL     1       1.151  -1.292  -2.443  0.00  0.00    +0.338 C 
ATOM      3  O   UNL     1       0.380  -0.393  -2.138  0.00  0.00    -0.248 OA
BRANCH   2   4
ATOM      4  O   UNL     1       1.282  -1.776  -3.697  0.00  0.00    -0.479 OA
ATOM      5  H   UNL     1       2.054  -2.398  -3.702  0.00  0.00    +0.295 HD
ENDBRANCH   2   4
ENDBRANCH   1   2
BRANCH   1   6
ATOM      6  O   UNL     1       2.930  -2.840  -2.241  0.00  0.00    -0.376 OA
ATOM      7  H   UNL     1       3.165  -3.621  -1.690  0.00  0.00    +0.211 HD
ENDBRANCH   1   6
BRANCH   1   8
ATOM      8  C   UNL     1       2.955  -0.807  -0.823  0.00  0.00    +0.167 C 
BRANCH   8   9
ATOM      9  C   UNL     1       3.724   0.006  -1.833  0.00  0.00    +0.308 C 
ATOM     10  O   UNL     1       4.884  -0.225  -2.137  0.00  0.00    -0.251 OA
BRANCH   9  11
ATOM     11  O   UNL     1       3.030   1.031  -2.373  0.00  0.00    -0.481 OA
ATOM     12  H   UNL     1       2.090   1.123  -2.109  0.00  0.00    +0.295 HD
ENDBRANCH   9  11
ENDBRANCH   8   9
ENDBRANCH   1   8
BRANCH   1  13
ATOM     13  C   UNL     1       1.281  -2.699  -0.434  0.00  0.00    +0.167 C 
BRANCH  13  14
ATOM     14  C   UNL     1       2.156  -3.383   0.582  0.00  0.00    +0.308 C 
ATOM     15  O   UNL     1       3.086  -4.108   0.260  0.00  0.00    -0.251 OA
BRANCH  14  16
ATOM     16  O   UNL     1       1.836  -3.126   1.864  0.00  0.00    -0.481 OA
ATOM     17  H   UNL     1       1.060  -2.555   2.017  0.00  0.00    +0.295 HD
ENDBRANCH  14  16
ENDBRANCH  13  14
ENDBRANCH   1  13
TORSDOF 9
