REMARK  Name = 
REMARK  4 active torsions:
REMARK  status: ('A' for Active; 'I' for Inactive)
REMARK    1  A    between atoms: C_1  and  C_2
REMARK    2  A    between atoms: C_1  and  C_3
REMARK    3  A    between atoms: C_1  and  O_4
REMARK    4  A    between atoms: C_2  and  O_5
REMARK                            x       y       z     vdW  Elec       q    Type
REMARK                         _______ _______ _______ _____ _____    ______ ____
ROOT
ATOM      1  C   UNL     1       0.852   0.004  -0.059  0.00  0.00    +0.219 C 
ATOM      2  C   UNL     1       0.459   0.802  -1.290  0.00  0.00    +0.049 C 
ENDROOT
BRANCH   1   3
ATOM      3  C   UNL     1       0.187  -1.373  -0.018  0.00  0.00    +0.333 C 
ATOM      4  O   UNL     1      -0.921  -1.646  -0.448  0.00  0.00    -0.248 OA
BRANCH   3   5
ATOM      5  O   UNL     1       0.995  -2.284   0.590  0.00  0.00    -0.479 OA
ATOM      6  H   UNL     1       1.835  -1.834   0.843  0.00  0.00    +0.295 HD
ENDBRANCH   3   5
ENDBRANCH   1   3
BRANCH   1   7
ATOM      7  O   UNL     1       2.275  -0.181  -0.020  0.00  0.00    -0.381 OA
ATOM      8  H   UNL     1       2.563  -0.411  -0.924  0.00  0.00    +0.210 HD
ENDBRANCH   1   7
TORSDOF 3
