REMARK  Name = 
REMARK  31 active torsions:
REMARK  status: ('A' for Active; 'I' for Inactive)
REMARK    1  A    between atoms: C_1  and  C_2
REMARK    2  A    between atoms: C_1  and  C_52
REMARK    3  A    between atoms: C_2  and  S_3
REMARK    4  A    between atoms: S_3  and  C_4
REMARK    5  A    between atoms: C_4  and  C_5
REMARK    6  A    between atoms: C_5  and  N_6
REMARK    7  A    between atoms: C_7  and  C_8
REMARK    8  A    between atoms: C_8  and  C_9
REMARK    9  A    between atoms: C_9  and  N_10
REMARK   10  A    between atoms: C_11  and  C_12
REMARK   11  A    between atoms: C_12  and  C_13
REMARK   12  A    between atoms: C_12  and  O_19
REMARK   13  A    between atoms: C_13  and  C_14
REMARK   14  A    between atoms: C_13  and  C_20
REMARK   15  A    between atoms: C_13  and  C_21
REMARK   16  A    between atoms: C_14  and  O_15
REMARK   17  A    between atoms: O_15  and  P_22
REMARK   18  A    between atoms: P_22  and  O_24
REMARK   19  A    between atoms: P_22  and  O_51
REMARK   20  A    between atoms: C_25  and  O_31
REMARK   21  A    between atoms: C_26  and  O_32
REMARK   22  A    between atoms: C_27  and  C_30
REMARK   23  A    between atoms: C_29  and  N_39
REMARK   24  A    between atoms: C_30  and  O_47
REMARK   25  A    between atoms: O_32  and  P_33
REMARK   26  A    between atoms: P_33  and  O_34
REMARK   27  A    between atoms: P_33  and  O_35
REMARK   28  A    between atoms: O_47  and  P_48
REMARK   29  A    between atoms: P_48  and  O_49
REMARK   30  A    between atoms: P_48  and  O_51
REMARK   31  A    between atoms: C_52  and  C_53
REMARK                            x       y       z     vdW  Elec       q    Type
REMARK                         _______ _______ _______ _____ _____    ______ ____
ROOT
ATOM      1  P   UNL     1       3.166  15.005   3.919  0.00  0.00    +0.483 P 
ATOM      2  O   UNL     1       2.340  14.365   5.061  0.00  0.00    -0.227 OA
ENDROOT
BRANCH   1   3
ATOM      3  O   UNL     1       2.012  16.127   3.623  0.00  0.00    -0.302 OA
ATOM      4  H   UNL     1       1.287  15.938   4.253  0.00  0.00    +0.222 HD
ENDBRANCH   1   3
BRANCH   1   5
ATOM      5  O   UNL     1       4.091  15.848   4.996  0.00  0.00    -0.284 OA
BRANCH   5   6
ATOM      6  C   UNL     1       4.596  17.140   4.740  0.00  0.00    +0.206 C 
BRANCH   6   9
ATOM      7  C   UNL     1       5.711  19.315   7.496  0.00  0.00    +0.196 C 
ATOM      8  C   UNL     1       4.831  18.139   7.080  0.00  0.00    +0.194 C 
ATOM      9  C   UNL     1       5.536  17.557   5.867  0.00  0.00    +0.179 C 
ATOM     10  O   UNL     1       6.365  18.578   5.320  0.00  0.00    -0.346 OA
ATOM     11  C   UNL     1       6.729  19.467   6.367  0.00  0.00    +0.253 C 
BRANCH  11  14
ATOM     12  C   UNL     1       7.339  22.879   5.523  0.00  0.00    +0.147 A 
ATOM     13  C   UNL     1       7.550  21.785   6.352  0.00  0.00    +0.167 A 
ATOM     14  N   UNL     1       6.778  20.803   5.824  0.00  0.00    -0.286 N 
ATOM     15  C   UNL     1       6.104  21.307   4.740  0.00  0.00    +0.203 A 
ATOM     16  N   UNL     1       6.423  22.571   4.534  0.00  0.00    -0.231 NA
ATOM     17  C   UNL     1       8.072  24.036   5.831  0.00  0.00    +0.147 A 
ATOM     18  N   UNL     1       8.855  24.027   6.931  0.00  0.00    -0.219 NA
ATOM     19  C   UNL     1       8.941  22.887   7.658  0.00  0.00    +0.225 A 
ATOM     20  N   UNL     1       8.345  21.705   7.425  0.00  0.00    -0.216 NA
ATOM     21  N   UNL     1       8.022  25.188   5.059  0.00  0.00    -0.341 N 
ATOM     22  H   UNL     1       7.192  25.252   4.481  0.00  0.00    +0.144 HD
ATOM     23  H   UNL     1       8.309  26.005   5.578  0.00  0.00    +0.144 HD
ENDBRANCH  11  14
BRANCH   7  24
ATOM     24  O   UNL     1       6.358  19.126   8.748  0.00  0.00    -0.385 OA
ATOM     25  H   UNL     1       6.970  18.376   8.701  0.00  0.00    +0.210 HD
ENDBRANCH   7  24
BRANCH   8  26
ATOM     26  O   UNL     1       4.695  17.162   8.098  0.00  0.00    -0.278 OA
BRANCH  26  27
ATOM     27  P   UNL     1       3.686  17.466   9.302  0.00  0.00    +0.473 P 
ATOM     28  O   UNL     1       3.892  18.678  10.137  0.00  0.00    -0.228 OA
BRANCH  27  29
ATOM     29  O   UNL     1       3.577  16.088  10.094  0.00  0.00    -0.303 OA
ATOM     30  H   UNL     1       3.223  15.386   9.521  0.00  0.00    +0.222 HD
ENDBRANCH  27  29
BRANCH  27  31
ATOM     31  O   UNL     1       2.245  17.517   8.617  0.00  0.00    -0.303 OA
ATOM     32  H   UNL     1       1.678  18.107   9.153  0.00  0.00    +0.222 HD
ENDBRANCH  27  31
ENDBRANCH  26  27
ENDBRANCH   8  26
ENDBRANCH   6   9
ENDBRANCH   5   6
ENDBRANCH   1   5
BRANCH   1  33
ATOM     33  O   UNL     1       4.089  15.721   2.643  0.00  0.00    -0.186 OA
BRANCH  33  34
ATOM     34  P   UNL     1       5.304  15.153   1.759  0.00  0.00    +0.483 P 
ATOM     35  O   UNL     1       5.551  15.947   0.514  0.00  0.00    -0.227 OA
BRANCH  34  36
ATOM     36  O   UNL     1       4.851  13.646   1.444  0.00  0.00    -0.302 OA
ATOM     37  H   UNL     1       5.119  13.025   2.145  0.00  0.00    +0.222 HD
ENDBRANCH  34  36
BRANCH  34  38
ATOM     38  O   UNL     1       6.728  14.814   2.542  0.00  0.00    -0.286 OA
BRANCH  38  39
ATOM     39  C   UNL     1       7.755  14.421   1.567  0.00  0.00    +0.181 C 
BRANCH  39  40
ATOM     40  C   UNL     1       9.214  13.922   1.902  0.00  0.00    +0.024 C 
ATOM     41  C   UNL     1       9.228  12.730   2.884  0.00  0.00    +0.016 C 
ATOM     42  C   UNL     1      10.075  15.028   2.549  0.00  0.00    +0.016 C 
BRANCH  40  43
ATOM     43  C   UNL     1       9.916  13.452   0.540  0.00  0.00    +0.208 C 
BRANCH  43  45
ATOM     44  N   UNL     1       9.292  14.335  -1.739  0.00  0.00    -0.313 N 
ATOM     45  C   UNL     1       9.996  14.558  -0.563  0.00  0.00    +0.242 C 
ATOM     46  O   UNL     1      10.651  15.586  -0.391  0.00  0.00    -0.273 OA
ATOM     47  H   UNL     1       8.987  13.386  -1.938  0.00  0.00    +0.149 HD
BRANCH  44  48
ATOM     48  C   UNL     1       9.400  15.320  -2.813  0.00  0.00    +0.113 C 
BRANCH  48  49
ATOM     49  C   UNL     1       8.758  14.985  -4.152  0.00  0.00    +0.114 C 
BRANCH  49  51
ATOM     50  N   UNL     1       6.475  15.816  -3.788  0.00  0.00    -0.314 N 
ATOM     51  C   UNL     1       7.264  14.741  -4.133  0.00  0.00    +0.215 C 
ATOM     52  O   UNL     1       6.806  13.651  -4.469  0.00  0.00    -0.276 OA
ATOM     53  H   UNL     1       6.901  16.646  -3.396  0.00  0.00    +0.149 HD
BRANCH  50  54
ATOM     54  C   UNL     1       5.019  15.707  -3.730  0.00  0.00    +0.115 C 
BRANCH  54  55
ATOM     55  C   UNL     1       4.265  16.780  -4.532  0.00  0.00    +0.096 C 
BRANCH  55  56
ATOM     56  S   UNL     1       4.637  16.705  -6.316  0.00  0.00    -0.087 S 
BRANCH  56  57
ATOM     57  C   UNL     1       3.604  18.010  -6.917  0.00  0.00    +0.189 C 
ATOM     58  O   UNL     1       2.876  18.655  -6.174  0.00  0.00    -0.285 OA
BRANCH  57  59
ATOM     59  C   UNL     1       3.671  18.187  -8.427  0.00  0.00    +0.086 C 
BRANCH  59  60
ATOM     60  C   UNL     1       3.242  19.566  -8.928  0.00  0.00    +0.005 C 
ATOM     61  C   UNL     1       4.168  20.691  -8.487  0.00  0.00    +0.004 C 
ENDBRANCH  59  60
ENDBRANCH  57  59
ENDBRANCH  56  57
ENDBRANCH  55  56
ENDBRANCH  54  55
ENDBRANCH  50  54
ENDBRANCH  49  51
ENDBRANCH  48  49
ENDBRANCH  44  48
ENDBRANCH  43  45
BRANCH  43  62
ATOM     62  O   UNL     1       9.375  12.225   0.040  0.00  0.00    -0.382 OA
ATOM     63  H   UNL     1       8.412  12.215   0.144  0.00  0.00    +0.210 HD
ENDBRANCH  43  62
ENDBRANCH  40  43
ENDBRANCH  39  40
ENDBRANCH  38  39
ENDBRANCH  34  38
ENDBRANCH  33  34
ENDBRANCH   1  33
TORSDOF 28
