REMARK  Name = 
REMARK  11 active torsions:
REMARK  status: ('A' for Active; 'I' for Inactive)
REMARK    1  A    between atoms: P_1  and  O_2
REMARK    2  A    between atoms: P_1  and  O_3
REMARK    3  A    between atoms: P_1  and  O_4
REMARK    4  A    between atoms: O_2  and  C_6
REMARK    5  A    between atoms: C_6  and  C_7
REMARK    6  A    between atoms: C_7  and  C_9
REMARK    7  A    between atoms: C_7  and  O_10
REMARK    8  A    between atoms: C_9  and  O_11
REMARK    9  A    between atoms: O_11  and  P_12
REMARK   10  A    between atoms: P_12  and  O_13
REMARK   11  A    between atoms: P_12  and  O_14
REMARK                            x       y       z     vdW  Elec       q    Type
REMARK                         _______ _______ _______ _____ _____    ______ ____
ROOT
ATOM      1  C   UNL     1       1.011  -1.494   2.508  0.00  0.00    +0.249 C 
ENDROOT
BRANCH   1   2
ATOM      2  C   UNL     1       0.887   0.029   2.598  0.00  0.00    +0.346 C 
ATOM      3  O   UNL     1      -0.138   0.657   2.348  0.00  0.00    -0.247 OA
BRANCH   2   4
ATOM      4  O   UNL     1       1.975   0.574   3.192  0.00  0.00    -0.369 OA
BRANCH   4   5
ATOM      5  P   UNL     1       1.696   1.596   4.452  0.00  0.00    +0.530 P 
ATOM      6  O   UNL     1       2.104   2.902   3.727  0.00  0.00    -0.216 OA
BRANCH   5   7
ATOM      7  O   UNL     1       3.131   1.351   5.209  0.00  0.00    -0.293 OA
ATOM      8  H   UNL     1       3.198   1.748   6.091  0.00  0.00    +0.223 HD
ENDBRANCH   5   7
BRANCH   5   9
ATOM      9  O   UNL     1       1.239   0.138   5.262  0.00  0.00    -0.293 OA
ATOM     10  H   UNL     1       1.318   0.232   6.230  0.00  0.00    +0.223 HD
ENDBRANCH   5   9
ENDBRANCH   4   5
ENDBRANCH   2   4
ENDBRANCH   1   2
BRANCH   1  11
ATOM     11  O   UNL     1       1.115  -1.990   1.174  0.00  0.00    -0.379 OA
ATOM     12  H   UNL     1       0.228  -2.254   0.873  0.00  0.00    +0.211 HD
ENDBRANCH   1  11
BRANCH   1  13
ATOM     13  C   UNL     1      -0.221  -2.082   3.213  0.00  0.00    +0.215 C 
BRANCH  13  14
ATOM     14  O   UNL     1      -0.067  -3.491   3.370  0.00  0.00    -0.284 OA
BRANCH  14  15
ATOM     15  P   UNL     1      -1.370  -4.309   3.784  0.00  0.00    +0.472 P 
ATOM     16  O   UNL     1      -2.330  -3.623   4.701  0.00  0.00    -0.228 OA
BRANCH  15  17
ATOM     17  O   UNL     1      -2.012  -4.779   2.412  0.00  0.00    -0.303 OA
ATOM     18  H   UNL     1      -2.914  -5.118   2.548  0.00  0.00    +0.222 HD
ENDBRANCH  15  17
BRANCH  15  19
ATOM     19  O   UNL     1      -0.747  -5.676   4.337  0.00  0.00    -0.303 OA
ATOM     20  H   UNL     1      -0.012  -5.970   3.774  0.00  0.00    +0.222 HD
ENDBRANCH  15  19
ENDBRANCH  14  15
ENDBRANCH  13  14
ENDBRANCH   1  13
TORSDOF 11
