REMARK  Name = 
REMARK  17 active torsions:
REMARK  status: ('A' for Active; 'I' for Inactive)
REMARK    1  A    between atoms: C_1  and  N_2
REMARK    2  A    between atoms: C_4  and  O_9
REMARK    3  A    between atoms: C_7  and  C_13
REMARK    4  A    between atoms: C_8  and  O_14
REMARK    5  A    between atoms: C_13  and  O_16
REMARK    6  A    between atoms: O_16  and  P_18
REMARK    7  A    between atoms: P_18  and  O_19
REMARK    8  A    between atoms: P_18  and  O_20
REMARK    9  A    between atoms: O_19  and  P_22
REMARK   10  A    between atoms: P_22  and  O_23
REMARK   11  A    between atoms: P_22  and  O_24
REMARK   12  A    between atoms: O_23  and  C_26
REMARK   13  A    between atoms: C_28  and  O_31
REMARK   14  A    between atoms: C_29  and  C_33
REMARK   15  A    between atoms: C_30  and  O_34
REMARK   16  A    between atoms: C_32  and  O_35
REMARK   17  A    between atoms: C_33  and  O_36
REMARK                            x       y       z     vdW  Elec       q    Type
REMARK                         _______ _______ _______ _____ _____    ______ ____
ROOT
ATOM      1  P   UNL     1       2.555  -2.232  -3.870  0.00  0.00    +0.483 P 
ATOM      2  O   UNL     1       3.245  -2.331  -5.252  0.00  0.00    -0.227 OA
ENDROOT
BRANCH   1   3
ATOM      3  O   UNL     1       1.335  -3.253  -4.251  0.00  0.00    -0.302 OA
ATOM      4  H   UNL     1       0.484  -2.789  -4.340  0.00  0.00    +0.222 HD
ENDBRANCH   1   3
BRANCH   1   5
ATOM      5  O   UNL     1       3.551  -3.281  -3.107  0.00  0.00    -0.186 OA
BRANCH   5   6
ATOM      6  P   UNL     1       3.121  -4.550  -2.238  0.00  0.00    +0.486 P 
ATOM      7  O   UNL     1       2.027  -4.467  -1.232  0.00  0.00    -0.227 OA
BRANCH   6   8
ATOM      8  O   UNL     1       4.471  -4.858  -1.406  0.00  0.00    -0.302 OA
ATOM      9  H   UNL     1       4.231  -4.985  -0.470  0.00  0.00    +0.222 HD
ENDBRANCH   6   8
BRANCH   6  10
ATOM     10  O   UNL     1       3.064  -5.747  -3.277  0.00  0.00    -0.254 OA
BRANCH  10  11
ATOM     11  C   UNL     1       2.331  -6.887  -2.908  0.00  0.00    +0.294 C 
ATOM     12  O   UNL     1       0.940  -6.739  -3.133  0.00  0.00    -0.331 OA
ATOM     13  C   UNL     1       2.927  -8.025  -3.734  0.00  0.00    +0.202 C 
ATOM     14  C   UNL     1       0.528  -6.549  -4.487  0.00  0.00    +0.260 C 
ATOM     15  C   UNL     1       2.625  -7.750  -5.215  0.00  0.00    +0.179 C 
ATOM     16  C   UNL     1       1.119  -7.600  -5.424  0.00  0.00    +0.185 C 
BRANCH  16  17
ATOM     17  O   UNL     1       0.827  -7.210  -6.783  0.00  0.00    -0.386 OA
ATOM     18  H   UNL     1       1.674  -7.241  -7.276  0.00  0.00    +0.210 HD
ENDBRANCH  16  17
BRANCH  15  19
ATOM     19  O   UNL     1       3.101  -8.793  -6.073  0.00  0.00    -0.386 OA
ATOM     20  H   UNL     1       3.166  -9.611  -5.548  0.00  0.00    +0.210 HD
ENDBRANCH  15  19
BRANCH  14  21
ATOM     21  C   UNL     1      -1.010  -6.609  -4.560  0.00  0.00    +0.337 C 
ATOM     22  O   UNL     1      -1.755  -6.561  -3.590  0.00  0.00    -0.248 OA
BRANCH  21  23
ATOM     23  O   UNL     1      -1.509  -6.676  -5.822  0.00  0.00    -0.479 OA
ATOM     24  H   UNL     1      -0.804  -6.778  -6.509  0.00  0.00    +0.295 HD
ENDBRANCH  21  23
ENDBRANCH  14  21
BRANCH  13  25
ATOM     25  O   UNL     1       4.342  -8.109  -3.526  0.00  0.00    -0.384 OA
ATOM     26  H   UNL     1       4.704  -7.211  -3.671  0.00  0.00    +0.210 HD
ENDBRANCH  13  25
ENDBRANCH  10  11
ENDBRANCH   6  10
ENDBRANCH   5   6
ENDBRANCH   1   5
BRANCH   1  27
ATOM     27  O   UNL     1       1.784  -2.123  -2.325  0.00  0.00    -0.284 OA
BRANCH  27  28
ATOM     28  C   UNL     1       2.604  -1.511  -1.304  0.00  0.00    +0.206 C 
BRANCH  28  32
ATOM     29  C   UNL     1       5.481   0.214  -0.797  0.00  0.00    +0.255 C 
ATOM     30  O   UNL     1       4.079   0.170  -0.409  0.00  0.00    -0.346 OA
ATOM     31  C   UNL     1       5.564  -0.398  -2.195  0.00  0.00    +0.195 C 
ATOM     32  C   UNL     1       3.261  -0.133  -1.580  0.00  0.00    +0.178 C 
ATOM     33  C   UNL     1       4.227   0.035  -2.756  0.00  0.00    +0.178 C 
BRANCH  29  34
ATOM     34  N   UNL     1       6.330  -0.459   0.179  0.00  0.00    -0.271 N 
ATOM     35  C   UNL     1       7.645  -0.003   0.275  0.00  0.00    +0.331 A 
ATOM     36  C   UNL     1       5.888  -1.540   0.915  0.00  0.00    +0.098 A 
ATOM     37  N   UNL     1       8.445  -0.675   1.161  0.00  0.00    -0.275 N 
ATOM     38  O   UNL     1       8.091   0.954  -0.352  0.00  0.00    -0.246 OA
ATOM     39  C   UNL     1       6.672  -2.162   1.799  0.00  0.00    +0.088 A 
ATOM     40  C   UNL     1       8.049  -1.685   1.986  0.00  0.00    +0.254 A 
ATOM     41  O   UNL     1       8.776  -2.177   2.843  0.00  0.00    -0.268 OA
ATOM     42  H   UNL     1       9.386  -0.326   1.269  0.00  0.00    +0.173 HD
ENDBRANCH  29  34
BRANCH  33  43
ATOM     43  O   UNL     1       4.314   1.408  -3.173  0.00  0.00    -0.386 OA
ATOM     44  H   UNL     1       4.126   1.997  -2.425  0.00  0.00    +0.210 HD
ENDBRANCH  33  43
BRANCH  31  45
ATOM     45  O   UNL     1       6.630   0.076  -3.009  0.00  0.00    -0.385 OA
ATOM     46  H   UNL     1       6.314   0.888  -3.457  0.00  0.00    +0.210 HD
ENDBRANCH  31  45
ENDBRANCH  28  32
ENDBRANCH  27  28
ENDBRANCH   1  27
TORSDOF 17
