REMARK  Name = 
REMARK  0 active torsions:
REMARK  status: ('A' for Active; 'I' for Inactive)
REMARK                            x       y       z     vdW  Elec       q    Type
REMARK                         _______ _______ _______ _____ _____    ______ ____
ROOT
ATOM      1  C   UNL     1       0.206   0.536   0.001  0.00  0.00    +0.147 A 
ATOM      2  C   UNL     1       0.659  -0.772   0.001  0.00  0.00    +0.163 A 
ATOM      3  N   UNL     1      -0.073  -1.895   0.005  0.00  0.00    -0.216 NA
ATOM      4  C   UNL     1      -1.390  -1.600   0.010  0.00  0.00    +0.225 A 
ATOM      5  N   UNL     1      -1.979  -0.384   0.007  0.00  0.00    -0.219 NA
ATOM      6  C   UNL     1      -1.188   0.715   0.001  0.00  0.00    +0.147 A 
ATOM      7  N   UNL     1       1.270   1.418  -0.000  0.00  0.00    -0.231 NA
ATOM      8  C   UNL     1       2.341   0.653  -0.001  0.00  0.00    +0.198 A 
ATOM      9  N   UNL     1       2.020  -0.678  -0.005  0.00  0.00    -0.329 N 
ATOM     10  N   UNL     1      -1.791   1.952  -0.006  0.00  0.00    -0.341 N 
ATOM     11  H   UNL     1       2.658  -1.459  -0.011  0.00  0.00    +0.168 HD
ATOM     12  H   UNL     1      -2.797   1.989  -0.004  0.00  0.00    +0.144 HD
ATOM     13  H   UNL     1      -1.215   2.781  -0.005  0.00  0.00    +0.144 HD
ENDROOT
TORSDOF 0
