REMARK  Name = 
REMARK  17 active torsions:
REMARK  status: ('A' for Active; 'I' for Inactive)
REMARK    1  A    between atoms: C_1  and  N_2
REMARK    2  A    between atoms: C_4  and  O_9
REMARK    3  A    between atoms: C_7  and  C_13
REMARK    4  A    between atoms: C_8  and  O_14
REMARK    5  A    between atoms: C_13  and  O_16
REMARK    6  A    between atoms: O_16  and  P_18
REMARK    7  A    between atoms: P_18  and  O_19
REMARK    8  A    between atoms: P_18  and  O_20
REMARK    9  A    between atoms: O_19  and  P_22
REMARK   10  A    between atoms: P_22  and  O_23
REMARK   11  A    between atoms: P_22  and  O_24
REMARK   12  A    between atoms: O_23  and  C_26
REMARK   13  A    between atoms: C_28  and  O_31
REMARK   14  A    between atoms: C_29  and  C_33
REMARK   15  A    between atoms: C_30  and  O_34
REMARK   16  A    between atoms: C_32  and  O_35
REMARK   17  A    between atoms: C_33  and  O_36
REMARK                            x       y       z     vdW  Elec       q    Type
REMARK                         _______ _______ _______ _____ _____    ______ ____
ROOT
ATOM      1  P   UNL     1       2.555  -2.232  -3.870  0.00  0.00    +0.483 P 
ATOM      2  O   UNL     1       3.245  -2.331  -5.252  0.00  0.00    -0.227 OA
ENDROOT
BRANCH   1   3
ATOM      3  O   UNL     1       3.085  -3.693  -3.348  0.00  0.00    -0.302 OA
ATOM      4  H   UNL     1       2.383  -4.351  -3.213  0.00  0.00    +0.222 HD
ENDBRANCH   1   3
BRANCH   1   5
ATOM      5  O   UNL     1       3.836  -1.374  -3.244  0.00  0.00    -0.186 OA
BRANCH   5   6
ATOM      6  P   UNL     1       4.946  -0.789  -4.266  0.00  0.00    +0.486 P 
ATOM      7  O   UNL     1       4.443   0.288  -5.173  0.00  0.00    -0.227 OA
BRANCH   6   8
ATOM      8  O   UNL     1       5.549  -2.060  -5.051  0.00  0.00    -0.302 OA
ATOM      9  H   UNL     1       4.795  -2.408  -5.592  0.00  0.00    +0.222 HD
ENDBRANCH   6   8
BRANCH   6  10
ATOM     10  O   UNL     1       6.208  -0.357  -3.412  0.00  0.00    -0.254 OA
BRANCH  10  11
ATOM     11  C   UNL     1       6.604  -1.040  -2.250  0.00  0.00    +0.293 C 
ATOM     12  O   UNL     1       6.738  -2.462  -2.354  0.00  0.00    -0.340 OA
ATOM     13  C   UNL     1       7.927  -0.399  -1.794  0.00  0.00    +0.202 C 
ATOM     14  C   UNL     1       7.802  -2.949  -3.198  0.00  0.00    +0.178 C 
ATOM     15  C   UNL     1       9.020  -0.803  -2.791  0.00  0.00    +0.179 C 
ATOM     16  C   UNL     1       9.155  -2.329  -2.811  0.00  0.00    +0.177 C 
BRANCH  16  17
ATOM     17  O   UNL     1       9.596  -2.762  -1.515  0.00  0.00    -0.386 OA
ATOM     18  H   UNL     1       8.808  -2.959  -0.973  0.00  0.00    +0.210 HD
ENDBRANCH  16  17
BRANCH  15  19
ATOM     19  O   UNL     1      10.250  -0.185  -2.383  0.00  0.00    -0.386 OA
ATOM     20  H   UNL     1      10.594  -0.732  -1.650  0.00  0.00    +0.210 HD
ENDBRANCH  15  19
BRANCH  13  21
ATOM     21  O   UNL     1       7.830   1.028  -1.715  0.00  0.00    -0.384 OA
ATOM     22  H   UNL     1       8.712   1.365  -1.972  0.00  0.00    +0.210 HD
ENDBRANCH  13  21
BRANCH  14  23
ATOM     23  C   UNL     1       7.835  -4.488  -3.083  0.00  0.00    +0.190 C 
BRANCH  23  24
ATOM     24  O   UNL     1       6.660  -5.102  -3.615  0.00  0.00    -0.392 OA
ATOM     25  H   UNL     1       6.250  -4.485  -4.247  0.00  0.00    +0.210 HD
ENDBRANCH  23  24
ENDBRANCH  14  23
ENDBRANCH  10  11
ENDBRANCH   6  10
ENDBRANCH   5   6
ENDBRANCH   1   5
BRANCH   1  26
ATOM     26  O   UNL     1       1.784  -2.123  -2.325  0.00  0.00    -0.284 OA
BRANCH  26  27
ATOM     27  C   UNL     1       1.450  -0.827  -1.817  0.00  0.00    +0.206 C 
BRANCH  27  31
ATOM     28  C   UNL     1       0.176   2.293  -2.509  0.00  0.00    +0.255 C 
ATOM     29  O   UNL     1      -0.037   1.090  -1.727  0.00  0.00    -0.346 OA
ATOM     30  C   UNL     1       1.144   1.887  -3.625  0.00  0.00    +0.195 C 
ATOM     31  C   UNL     1       0.314  -0.073  -2.535  0.00  0.00    +0.178 C 
ATOM     32  C   UNL     1       0.647   0.482  -3.921  0.00  0.00    +0.178 C 
BRANCH  28  33
ATOM     33  N   UNL     1       0.629   3.407  -1.684  0.00  0.00    -0.271 N 
ATOM     34  C   UNL     1       0.310   4.692  -2.132  0.00  0.00    +0.331 A 
ATOM     35  C   UNL     1       1.361   3.215  -0.529  0.00  0.00    +0.098 A 
ATOM     36  N   UNL     1       0.762   5.724  -1.358  0.00  0.00    -0.275 N 
ATOM     37  O   UNL     1      -0.367   4.920  -3.141  0.00  0.00    -0.246 OA
ATOM     38  C   UNL     1       1.738   4.230   0.253  0.00  0.00    +0.088 A 
ATOM     39  C   UNL     1       1.369   5.601  -0.142  0.00  0.00    +0.254 A 
ATOM     40  O   UNL     1       1.583   6.553   0.599  0.00  0.00    -0.268 OA
ATOM     41  H   UNL     1       0.491   6.651  -1.643  0.00  0.00    +0.173 HD
ENDBRANCH  28  33
BRANCH  32  42
ATOM     42  O   UNL     1      -0.534   0.537  -4.742  0.00  0.00    -0.386 OA
ATOM     43  H   UNL     1      -1.316   0.740  -4.194  0.00  0.00    +0.210 HD
ENDBRANCH  32  42
BRANCH  30  44
ATOM     44  O   UNL     1       1.117   2.714  -4.775  0.00  0.00    -0.385 OA
ATOM     45  H   UNL     1       0.326   2.473  -5.297  0.00  0.00    +0.210 HD
ENDBRANCH  30  44
ENDBRANCH  27  31
ENDBRANCH  26  27
ENDBRANCH   1  26
TORSDOF 17
