REMARK  Name = 
REMARK  4 active torsions:
REMARK  status: ('A' for Active; 'I' for Inactive)
REMARK    1  A    between atoms: C_1  and  C_2
REMARK    2  A    between atoms: C_1  and  C_3
REMARK    3  A    between atoms: C_2  and  C_5
REMARK    4  A    between atoms: C_5  and  O_7
REMARK                            x       y       z     vdW  Elec       q    Type
REMARK                         _______ _______ _______ _____ _____    ______ ____
ROOT
ATOM      1  C   UNL     1       0.398  -1.145  -0.456  0.00  0.00    +0.194 C 
ENDROOT
BRANCH   1   2
ATOM      2  C   UNL     1       1.115   0.067   0.079  0.00  0.00    +0.141 C 
ATOM      3  C   UNL     1       2.016   0.836  -0.852  0.00  0.00    +0.086 C 
ATOM      4  O   UNL     1       0.903   0.468   1.225  0.00  0.00    -0.297 OA
ENDBRANCH   1   2
BRANCH   1   5
ATOM      5  C   UNL     1       1.312  -2.233  -0.931  0.00  0.00    +0.312 C 
ATOM      6  O   UNL     1       2.531  -2.173  -0.940  0.00  0.00    -0.251 OA
BRANCH   5   7
ATOM      7  O   UNL     1       0.642  -3.316  -1.389  0.00  0.00    -0.480 OA
ATOM      8  H   UNL     1      -0.330  -3.256  -1.321  0.00  0.00    +0.295 HD
ENDBRANCH   5   7
ENDBRANCH   1   5
TORSDOF 3
