REMARK  Name = 
REMARK  1 active torsions:
REMARK  status: ('A' for Active; 'I' for Inactive)
REMARK    1  A    between atoms: C_1  and  O_2
REMARK                            x       y       z     vdW  Elec       q    Type
REMARK                         _______ _______ _______ _____ _____    ______ ____
ROOT
ATOM      1  C   UNL     1       1.014  -0.021   0.047  0.00  0.00    +0.443 C 
ATOM      2  O   UNL     1       0.471  -0.203   1.120  0.00  0.00    -0.255 OA
ENDROOT
BRANCH   1   3
ATOM      3  O   UNL     1       0.358   0.175  -1.113  0.00  0.00    -0.483 OA
ATOM      4  H   UNL     1       0.970   0.302  -1.862  0.00  0.00    +0.295 HD
ENDBRANCH   1   3
TORSDOF 1
