REMARK  Name = 
REMARK  9 active torsions:
REMARK  status: ('A' for Active; 'I' for Inactive)
REMARK    1  A    between atoms: P_1  and  O_2
REMARK    2  A    between atoms: P_1  and  O_3
REMARK    3  A    between atoms: P_1  and  O_4
REMARK    4  A    between atoms: O_2  and  C_6
REMARK    5  A    between atoms: C_6  and  C_7
REMARK    6  A    between atoms: C_8  and  O_11
REMARK    7  A    between atoms: C_10  and  O_14
REMARK    8  A    between atoms: C_12  and  O_15
REMARK    9  A    between atoms: C_13  and  O_16
REMARK                            x       y       z     vdW  Elec       q    Type
REMARK                         _______ _______ _______ _____ _____    ______ ____
ROOT
ATOM      1  C   UNL     1       1.001  -3.911  -0.166  0.00  0.00    +0.179 C 
ATOM      2  C   UNL     1       1.998  -4.776  -0.969  0.00  0.00    +0.177 C 
ATOM      3  O   UNL     1      -0.331  -4.428  -0.339  0.00  0.00    -0.341 OA
ATOM      4  C   UNL     1       1.615  -4.832  -2.461  0.00  0.00    +0.179 C 
ATOM      5  C   UNL     1      -0.776  -4.483  -1.690  0.00  0.00    +0.279 C 
ATOM      6  C   UNL     1       0.160  -5.302  -2.605  0.00  0.00    +0.201 C 
ENDROOT
BRANCH   2   7
ATOM      7  O   UNL     1       1.976  -6.128  -0.466  0.00  0.00    -0.386 OA
ATOM      8  H   UNL     1       1.927  -6.085   0.508  0.00  0.00    +0.210 HD
ENDBRANCH   2   7
BRANCH   4   9
ATOM      9  O   UNL     1       1.808  -3.555  -3.066  0.00  0.00    -0.386 OA
ATOM     10  H   UNL     1       1.457  -3.586  -3.975  0.00  0.00    +0.210 HD
ENDBRANCH   4   9
BRANCH   5  11
ATOM     11  O   UNL     1      -2.068  -5.081  -1.703  0.00  0.00    -0.365 OA
ATOM     12  H   UNL     1      -1.887  -6.042  -1.729  0.00  0.00    +0.213 HD
ENDBRANCH   5  11
BRANCH   6  13
ATOM     13  O   UNL     1       0.037  -6.701  -2.282  0.00  0.00    -0.384 OA
ATOM     14  H   UNL     1       0.602  -6.854  -1.491  0.00  0.00    +0.210 HD
ENDBRANCH   6  13
BRANCH   1  15
ATOM     15  C   UNL     1       1.119  -2.410  -0.475  0.00  0.00    +0.206 C 
BRANCH  15  16
ATOM     16  O   UNL     1       0.288  -1.646   0.391  0.00  0.00    -0.284 OA
BRANCH  16  17
ATOM     17  P   UNL     1       0.168  -0.092   0.015  0.00  0.00    +0.472 P 
ATOM     18  O   UNL     1       1.444   0.668  -0.097  0.00  0.00    -0.228 OA
BRANCH  17  19
ATOM     19  O   UNL     1      -0.829   0.534   1.087  0.00  0.00    -0.303 OA
ATOM     20  H   UNL     1      -0.694   1.500   1.143  0.00  0.00    +0.222 HD
ENDBRANCH  17  19
BRANCH  17  21
ATOM     21  O   UNL     1      -0.755  -0.073  -1.283  0.00  0.00    -0.303 OA
ATOM     22  H   UNL     1      -1.622  -0.483  -1.090  0.00  0.00    +0.222 HD
ENDBRANCH  17  21
ENDBRANCH  16  17
ENDBRANCH  15  16
ENDBRANCH   1  15
TORSDOF 9
