REMARK  Name = 
REMARK  11 active torsions:
REMARK  status: ('A' for Active; 'I' for Inactive)
REMARK    1  A    between atoms: C_1  and  N_2
REMARK    2  A    between atoms: C_4  and  O_9
REMARK    3  A    between atoms: C_7  and  C_13
REMARK    4  A    between atoms: C_8  and  O_14
REMARK    5  A    between atoms: C_13  and  O_16
REMARK    6  A    between atoms: O_16  and  P_18
REMARK    7  A    between atoms: P_18  and  O_19
REMARK    8  A    between atoms: P_18  and  O_20
REMARK    9  A    between atoms: O_19  and  P_22
REMARK   10  A    between atoms: P_22  and  O_23
REMARK   11  A    between atoms: P_22  and  O_24
REMARK                            x       y       z     vdW  Elec       q    Type
REMARK                         _______ _______ _______ _____ _____    ______ ____
ROOT
ATOM      1  C   UNL     1       0.427   1.298   0.407  0.00  0.00    +0.255 C 
ATOM      2  O   UNL     1       1.588   0.438   0.348  0.00  0.00    -0.346 OA
ATOM      3  C   UNL     1      -0.636   0.663  -0.505  0.00  0.00    +0.195 C 
ATOM      4  C   UNL     1       1.242  -0.800  -0.318  0.00  0.00    +0.178 C 
ATOM      5  C   UNL     1      -0.284  -0.816  -0.398  0.00  0.00    +0.178 C 
ENDROOT
BRANCH   1   6
ATOM      6  N   UNL     1       0.789   2.664   0.035  0.00  0.00    -0.271 N 
ATOM      7  C   UNL     1       0.075   3.701   0.614  0.00  0.00    +0.331 A 
ATOM      8  C   UNL     1       1.787   2.911  -0.888  0.00  0.00    +0.098 A 
ATOM      9  N   UNL     1       0.436   4.966   0.231  0.00  0.00    -0.275 N 
ATOM     10  O   UNL     1      -0.810   3.545   1.452  0.00  0.00    -0.246 OA
ATOM     11  C   UNL     1       2.152   4.151  -1.231  0.00  0.00    +0.088 A 
ATOM     12  C   UNL     1       1.455   5.288  -0.620  0.00  0.00    +0.254 A 
ATOM     13  O   UNL     1       1.784   6.442  -0.861  0.00  0.00    -0.268 OA
ATOM     14  H   UNL     1      -0.053   5.732   0.672  0.00  0.00    +0.173 HD
ENDBRANCH   1   6
BRANCH   3  15
ATOM     15  O   UNL     1      -1.983   0.903  -0.116  0.00  0.00    -0.385 OA
ATOM     16  H   UNL     1      -2.185   0.277   0.609  0.00  0.00    +0.210 HD
ENDBRANCH   3  15
BRANCH   5  17
ATOM     17  O   UNL     1      -0.868  -1.348   0.806  0.00  0.00    -0.386 OA
ATOM     18  H   UNL     1      -0.271  -1.171   1.556  0.00  0.00    +0.210 HD
ENDBRANCH   5  17
BRANCH   4  19
ATOM     19  C   UNL     1       1.916  -0.856  -1.698  0.00  0.00    +0.206 C 
BRANCH  19  20
ATOM     20  O   UNL     1       3.336  -0.828  -1.546  0.00  0.00    -0.284 OA
BRANCH  20  21
ATOM     21  P   UNL     1       4.208  -0.900  -3.039  0.00  0.00    +0.483 P 
ATOM     22  O   UNL     1       4.987  -0.965  -4.375  0.00  0.00    -0.227 OA
BRANCH  21  23
ATOM     23  O   UNL     1       4.732  -2.360  -2.495  0.00  0.00    -0.302 OA
ATOM     24  H   UNL     1       4.113  -3.084  -2.682  0.00  0.00    +0.222 HD
ENDBRANCH  21  23
BRANCH  21  25
ATOM     25  O   UNL     1       5.328   0.025  -2.283  0.00  0.00    -0.186 OA
BRANCH  25  26
ATOM     26  P   UNL     1       5.156   1.592  -2.445  0.00  0.00    +0.481 P 
ATOM     27  O   UNL     1       4.054   2.039  -3.343  0.00  0.00    -0.227 OA
BRANCH  26  28
ATOM     28  O   UNL     1       5.020   2.130  -0.951  0.00  0.00    -0.302 OA
ATOM     29  H   UNL     1       5.770   1.839  -0.398  0.00  0.00    +0.222 HD
ENDBRANCH  26  28
BRANCH  26  30
ATOM     30  O   UNL     1       6.587   2.170  -2.848  0.00  0.00    -0.302 OA
ATOM     31  H   UNL     1       6.648   2.330  -3.810  0.00  0.00    +0.222 HD
ENDBRANCH  26  30
ENDBRANCH  25  26
ENDBRANCH  21  25
ENDBRANCH  20  21
ENDBRANCH  19  20
ENDBRANCH   4  19
TORSDOF 11
