REMARK  Name = 
REMARK  10 active torsions:
REMARK  status: ('A' for Active; 'I' for Inactive)
REMARK    1  A    between atoms: C_1  and  C_4
REMARK    2  A    between atoms: C_3  and  O_7
REMARK    3  A    between atoms: C_4  and  O_8
REMARK    4  A    between atoms: C_5  and  C_9
REMARK    5  A    between atoms: C_5  and  O_10
REMARK    6  A    between atoms: C_6  and  O_11
REMARK    7  A    between atoms: O_8  and  P_12
REMARK    8  A    between atoms: C_9  and  O_13
REMARK    9  A    between atoms: P_12  and  O_14
REMARK   10  A    between atoms: P_12  and  O_15
REMARK                            x       y       z     vdW  Elec       q    Type
REMARK                         _______ _______ _______ _____ _____    ______ ____
ROOT
ATOM      1  C   UNL     1      -0.697  -0.967  -0.152  0.00  0.00    +0.179 C 
ATOM      2  O   UNL     1       0.730  -0.944   0.071  0.00  0.00    -0.336 OA
ATOM      3  C   UNL     1      -1.189   0.417   0.284  0.00  0.00    +0.179 C 
ATOM      4  C   UNL     1       1.178   0.421   0.055  0.00  0.00    +0.220 C 
ATOM      5  C   UNL     1      -0.053   1.323  -0.166  0.00  0.00    +0.207 C 
ENDROOT
BRANCH   3   6
ATOM      6  O   UNL     1      -1.341   0.498   1.706  0.00  0.00    -0.386 OA
ATOM      7  H   UNL     1      -0.765  -0.163   2.131  0.00  0.00    +0.210 HD
ENDBRANCH   3   6
BRANCH   4   8
ATOM      8  O   UNL     1       2.065   0.568  -1.060  0.00  0.00    -0.361 OA
ATOM      9  H   UNL     1       2.858   0.068  -0.795  0.00  0.00    +0.213 HD
ENDBRANCH   4   8
BRANCH   5  10
ATOM     10  O   UNL     1      -0.225   1.658  -1.551  0.00  0.00    -0.384 OA
ATOM     11  H   UNL     1       0.656   1.504  -1.964  0.00  0.00    +0.210 HD
ENDBRANCH   5  10
BRANCH   1  12
ATOM     12  C   UNL     1      -1.033  -1.254  -1.626  0.00  0.00    +0.206 C 
BRANCH  12  13
ATOM     13  O   UNL     1      -0.509  -2.511  -2.051  0.00  0.00    -0.284 OA
BRANCH  13  14
ATOM     14  P   UNL     1      -0.893  -2.835  -3.706  0.00  0.00    +0.472 P 
ATOM     15  O   UNL     1      -1.237  -3.125  -5.188  0.00  0.00    -0.228 OA
BRANCH  14  16
ATOM     16  O   UNL     1       0.519  -2.079  -4.033  0.00  0.00    -0.303 OA
ATOM     17  H   UNL     1       1.219  -2.600  -3.599  0.00  0.00    +0.222 HD
ENDBRANCH  14  16
BRANCH  14  18
ATOM     18  O   UNL     1      -0.213  -4.305  -3.471  0.00  0.00    -0.303 OA
ATOM     19  H   UNL     1      -0.818  -4.990  -3.811  0.00  0.00    +0.222 HD
ENDBRANCH  14  18
ENDBRANCH  13  14
ENDBRANCH  12  13
ENDBRANCH   1  12
BRANCH   4  20
ATOM     20  C   UNL     1       1.908   0.744   1.373  0.00  0.00    +0.223 C 
BRANCH  20  21
ATOM     21  O   UNL     1       3.049  -0.105   1.548  0.00  0.00    -0.390 OA
ATOM     22  H   UNL     1       2.710  -0.981   1.808  0.00  0.00    +0.210 HD
ENDBRANCH  20  21
ENDBRANCH   4  20
TORSDOF 10
