REMARK  Name = 
REMARK  13 active torsions:
REMARK  status: ('A' for Active; 'I' for Inactive)
REMARK    1  A    between atoms: N_1  and  C_3
REMARK    2  A    between atoms: C_12  and  C_16
REMARK    3  A    between atoms: C_13  and  O_17
REMARK    4  A    between atoms: C_16  and  O_18
REMARK    5  A    between atoms: O_18  and  P_19
REMARK    6  A    between atoms: P_19  and  O_20
REMARK    7  A    between atoms: P_19  and  O_21
REMARK    8  A    between atoms: O_20  and  P_23
REMARK    9  A    between atoms: P_23  and  O_24
REMARK   10  A    between atoms: P_23  and  O_25
REMARK   11  A    between atoms: O_24  and  P_27
REMARK   12  A    between atoms: P_27  and  O_28
REMARK   13  A    between atoms: P_27  and  O_29
REMARK                            x       y       z     vdW  Elec       q    Type
REMARK                         _______ _______ _______ _____ _____    ______ ____
ROOT
ATOM      1  C   UNL     1       2.075   2.292   0.370  0.00  0.00    +0.225 C 
ATOM      2  O   UNL     1       1.424   2.996   1.437  0.00  0.00    -0.348 OA
ATOM      3  C   UNL     1       1.732   3.008  -0.924  0.00  0.00    +0.088 C 
ATOM      4  C   UNL     1       1.149   4.346   0.993  0.00  0.00    +0.175 C 
ATOM      5  C   UNL     1       1.590   4.444  -0.473  0.00  0.00    +0.150 C 
ENDROOT
BRANCH   1   6
ATOM      6  N   UNL     1       1.746   0.878   0.408  0.00  0.00    -0.288 N 
ATOM      7  C   UNL     1       0.521   0.256   0.326  0.00  0.00    +0.167 A 
ATOM      8  C   UNL     1       2.709  -0.101   0.387  0.00  0.00    +0.203 A 
ATOM      9  C   UNL     1       0.833  -1.093   0.185  0.00  0.00    +0.147 A 
ATOM     10  N   UNL     1      -0.724   0.796   0.320  0.00  0.00    -0.216 NA
ATOM     11  N   UNL     1       2.200  -1.297   0.219  0.00  0.00    -0.231 NA
ATOM     12  C   UNL     1      -0.228  -1.994  -0.000  0.00  0.00    +0.147 A 
ATOM     13  C   UNL     1      -1.651  -0.179   0.161  0.00  0.00    +0.225 A 
ATOM     14  N   UNL     1      -1.482  -1.500  -0.031  0.00  0.00    -0.219 NA
ATOM     15  N   UNL     1      -0.042  -3.347  -0.221  0.00  0.00    -0.341 N 
ATOM     16  H   UNL     1       0.909  -3.596  -0.492  0.00  0.00    +0.144 HD
ATOM     17  H   UNL     1      -0.803  -3.782  -0.719  0.00  0.00    +0.144 HD
ENDBRANCH   1   6
BRANCH   5  18
ATOM     18  O   UNL     1       2.837   5.117  -0.605  0.00  0.00    -0.389 OA
ATOM     19  H   UNL     1       3.474   4.807   0.064  0.00  0.00    +0.210 HD
ENDBRANCH   5  18
BRANCH   4  20
ATOM     20  C   UNL     1      -0.356   4.598   1.155  0.00  0.00    +0.206 C 
BRANCH  20  21
ATOM     21  O   UNL     1      -0.754   4.510   2.528  0.00  0.00    -0.284 OA
BRANCH  21  22
ATOM     22  P   UNL     1      -2.463   4.702   2.719  0.00  0.00    +0.483 P 
ATOM     23  O   UNL     1      -3.992   4.874   2.890  0.00  0.00    -0.227 OA
BRANCH  22  24
ATOM     24  O   UNL     1      -2.077   6.088   3.507  0.00  0.00    -0.302 OA
ATOM     25  H   UNL     1      -2.009   6.867   2.930  0.00  0.00    +0.222 HD
ENDBRANCH  22  24
BRANCH  22  26
ATOM     26  O   UNL     1      -2.425   3.667   4.105  0.00  0.00    -0.186 OA
BRANCH  26  27
ATOM     27  P   UNL     1      -3.436   2.292   3.826  0.00  0.00    +0.492 P 
ATOM     28  O   UNL     1      -4.342   1.061   3.576  0.00  0.00    -0.226 OA
BRANCH  27  29
ATOM     29  O   UNL     1      -4.686   3.162   4.465  0.00  0.00    -0.302 OA
ATOM     30  H   UNL     1      -4.460   4.112   4.536  0.00  0.00    +0.222 HD
ENDBRANCH  27  29
BRANCH  27  31
ATOM     31  O   UNL     1      -3.040   1.682   5.395  0.00  0.00    -0.186 OA
BRANCH  31  32
ATOM     32  P   UNL     1      -1.639   0.673   5.285  0.00  0.00    +0.481 P 
ATOM     33  O   UNL     1      -0.384  -0.229   5.186  0.00  0.00    -0.227 OA
BRANCH  32  34
ATOM     34  O   UNL     1      -0.952   1.743   6.319  0.00  0.00    -0.302 OA
ATOM     35  H   UNL     1      -0.172   2.172   5.927  0.00  0.00    +0.222 HD
ENDBRANCH  32  34
BRANCH  32  36
ATOM     36  O   UNL     1      -2.380  -0.234   6.432  0.00  0.00    -0.302 OA
ATOM     37  H   UNL     1      -3.342  -0.071   6.395  0.00  0.00    +0.222 HD
ENDBRANCH  32  36
ENDBRANCH  31  32
ENDBRANCH  27  31
ENDBRANCH  26  27
ENDBRANCH  22  26
ENDBRANCH  21  22
ENDBRANCH  20  21
ENDBRANCH   4  20
TORSDOF 13
