REMARK  Name = 
REMARK  9 active torsions:
REMARK  status: ('A' for Active; 'I' for Inactive)
REMARK    1  A    between atoms: O_1  and  C_2
REMARK    2  A    between atoms: C_2  and  C_3
REMARK    3  A    between atoms: C_3  and  C_4
REMARK    4  A    between atoms: C_4  and  C_5
REMARK    5  A    between atoms: C_4  and  C_10
REMARK    6  A    between atoms: C_4  and  O_13
REMARK    7  A    between atoms: C_5  and  C_6
REMARK    8  A    between atoms: C_6  and  O_7
REMARK    9  A    between atoms: C_10  and  O_11
REMARK                            x       y       z     vdW  Elec       q    Type
REMARK                         _______ _______ _______ _____ _____    ______ ____
ROOT
ATOM      1  C   UNL     1       2.245   2.391  -0.399  0.00  0.00    +0.182 C 
ENDROOT
BRANCH   1   2
ATOM      2  C   UNL     1       1.269   2.586   0.760  0.00  0.00    +0.338 C 
ATOM      3  O   UNL     1       0.506   1.709   1.153  0.00  0.00    -0.248 OA
BRANCH   2   4
ATOM      4  O   UNL     1       1.375   3.800   1.333  0.00  0.00    -0.479 OA
ATOM      5  H   UNL     1       2.137   4.268   0.910  0.00  0.00    +0.295 HD
ENDBRANCH   2   4
ENDBRANCH   1   2
BRANCH   1   6
ATOM      6  O   UNL     1       3.038   3.591  -0.447  0.00  0.00    -0.376 OA
ATOM      7  H   UNL     1       3.332   3.743  -1.374  0.00  0.00    +0.211 HD
ENDBRANCH   1   6
BRANCH   1   8
ATOM      8  C   UNL     1       3.074   1.136  -0.102  0.00  0.00    +0.167 C 
BRANCH   8   9
ATOM      9  C   UNL     1       3.845   1.226   1.189  0.00  0.00    +0.308 C 
ATOM     10  O   UNL     1       5.005   1.591   1.262  0.00  0.00    -0.251 OA
BRANCH   9  11
ATOM     11  O   UNL     1       3.144   0.840   2.282  0.00  0.00    -0.481 OA
ATOM     12  H   UNL     1       2.202   0.600   2.148  0.00  0.00    +0.295 HD
ENDBRANCH   9  11
ENDBRANCH   8   9
ENDBRANCH   1   8
BRANCH   1  13
ATOM     13  C   UNL     1       1.397   2.247  -1.675  0.00  0.00    +0.167 C 
BRANCH  13  14
ATOM     14  C   UNL     1       2.277   2.060  -2.878  0.00  0.00    +0.308 C 
ATOM     15  O   UNL     1       3.208   2.812  -3.122  0.00  0.00    -0.251 OA
BRANCH  14  16
ATOM     16  O   UNL     1       1.971   0.997  -3.644  0.00  0.00    -0.481 OA
ATOM     17  H   UNL     1       1.193   0.473  -3.373  0.00  0.00    +0.295 HD
ENDBRANCH  14  16
ENDBRANCH  13  14
ENDBRANCH   1  13
TORSDOF 9
