REMARK  Name = 
REMARK  13 active torsions:
REMARK  status: ('A' for Active; 'I' for Inactive)
REMARK    1  A    between atoms: C_1  and  O_2
REMARK    2  A    between atoms: C_1  and  C_5
REMARK    3  A    between atoms: O_2  and  C_6
REMARK    4  A    between atoms: C_4  and  O_9
REMARK    5  A    between atoms: C_5  and  O_10
REMARK    6  A    between atoms: C_7  and  C_13
REMARK    7  A    between atoms: C_8  and  O_14
REMARK    8  A    between atoms: C_12  and  O_17
REMARK    9  A    between atoms: C_13  and  O_18
REMARK   10  A    between atoms: C_15  and  C_20
REMARK   11  A    between atoms: C_16  and  O_21
REMARK   12  A    between atoms: C_19  and  O_22
REMARK   13  A    between atoms: C_20  and  O_23
REMARK                            x       y       z     vdW  Elec       q    Type
REMARK                         _______ _______ _______ _____ _____    ______ ____
ROOT
ATOM      1  O   UNL     1       1.014  -1.866   0.846  0.00  0.00    -0.313 OA
ENDROOT
BRANCH   1   2
ATOM      2  C   UNL     1       0.603  -1.136   2.008  0.00  0.00    +0.285 C 
ATOM      3  O   UNL     1      -0.744  -0.700   1.904  0.00  0.00    -0.340 OA
ATOM      4  C   UNL     1       0.822  -1.965   3.296  0.00  0.00    +0.201 C 
ATOM      5  C   UNL     1      -1.658  -1.808   1.800  0.00  0.00    +0.178 C 
ATOM      6  C   UNL     1      -0.217  -3.077   3.452  0.00  0.00    +0.179 C 
ATOM      7  C   UNL     1      -1.646  -2.632   3.100  0.00  0.00    +0.177 C 
BRANCH   4   8
ATOM      8  O   UNL     1       2.137  -2.553   3.315  0.00  0.00    -0.384 OA
ATOM      9  H   UNL     1       2.766  -1.895   2.976  0.00  0.00    +0.210 HD
ENDBRANCH   4   8
BRANCH   6  10
ATOM     10  O   UNL     1      -0.191  -3.569   4.806  0.00  0.00    -0.386 OA
ATOM     11  H   UNL     1      -0.859  -4.274   4.872  0.00  0.00    +0.210 HD
ENDBRANCH   6  10
BRANCH   7  12
ATOM     12  O   UNL     1      -2.469  -3.806   2.996  0.00  0.00    -0.386 OA
ATOM     13  H   UNL     1      -1.990  -4.482   2.495  0.00  0.00    +0.210 HD
ENDBRANCH   7  12
BRANCH   5  14
ATOM     14  C   UNL     1      -3.025  -1.227   1.422  0.00  0.00    +0.190 C 
BRANCH  14  15
ATOM     15  O   UNL     1      -3.420  -0.179   2.306  0.00  0.00    -0.392 OA
ATOM     16  H   UNL     1      -2.767   0.533   2.169  0.00  0.00    +0.210 HD
ENDBRANCH  14  15
ENDBRANCH   5  14
ENDBRANCH   1   2
BRANCH   1  17
ATOM     17  C   UNL     1       1.162  -1.098  -0.365  0.00  0.00    +0.225 C 
ATOM     18  O   UNL     1      -0.128  -0.656  -0.891  0.00  0.00    -0.336 OA
ATOM     19  C   UNL     1       1.732  -2.059  -1.438  0.00  0.00    +0.207 C 
ATOM     20  C   UNL     1      -0.334  -1.316  -2.163  0.00  0.00    +0.178 C 
ATOM     21  C   UNL     1       0.474  -2.596  -2.090  0.00  0.00    +0.179 C 
BRANCH  19  22
ATOM     22  O   UNL     1       2.567  -3.106  -0.962  0.00  0.00    -0.384 OA
ATOM     23  H   UNL     1       2.104  -3.503  -0.196  0.00  0.00    +0.210 HD
ENDBRANCH  19  22
BRANCH  21  24
ATOM     24  O   UNL     1       0.735  -3.129  -3.382  0.00  0.00    -0.386 OA
ATOM     25  H   UNL     1       1.621  -3.537  -3.348  0.00  0.00    +0.210 HD
ENDBRANCH  21  24
BRANCH  17  26
ATOM     26  C   UNL     1       2.121   0.113  -0.244  0.00  0.00    +0.223 C 
BRANCH  26  27
ATOM     27  O   UNL     1       1.569   1.204   0.493  0.00  0.00    -0.390 OA
ATOM     28  H   UNL     1       0.621   1.249   0.238  0.00  0.00    +0.210 HD
ENDBRANCH  26  27
ENDBRANCH  17  26
BRANCH  20  29
ATOM     29  C   UNL     1      -1.799  -1.544  -2.533  0.00  0.00    +0.190 C 
BRANCH  29  30
ATOM     30  O   UNL     1      -2.451  -2.434  -1.630  0.00  0.00    -0.392 OA
ATOM     31  H   UNL     1      -3.314  -2.646  -2.032  0.00  0.00    +0.210 HD
ENDBRANCH  29  30
ENDBRANCH  20  29
ENDBRANCH   1  17
TORSDOF 13
