REMARK  Name = 
REMARK  5 active torsions:
REMARK  status: ('A' for Active; 'I' for Inactive)
REMARK    1  A    between atoms: C_1  and  N_2
REMARK    2  A    between atoms: C_1  and  C_3
REMARK    3  A    between atoms: C_3  and  C_5
REMARK    4  A    between atoms: C_5  and  C_8
REMARK    5  A    between atoms: C_8  and  N_9
REMARK                            x       y       z     vdW  Elec       q    Type
REMARK                         _______ _______ _______ _____ _____    ______ ____
ROOT
ATOM      1  N   UNL     1       0.374  -1.328  -0.274  0.00  0.00    -0.356 N 
ATOM      2  C   UNL     1      -0.942  -1.608  -0.170  0.00  0.00    +0.188 C 
ATOM      3  N   UNL     1      -1.216  -2.924  -0.108  0.00  0.00    -0.370 N 
ATOM      4  N   UNL     1      -1.916  -0.775  -0.133  0.00  0.00    -0.269 NA
ATOM      5  H   UNL     1       1.007  -2.097  -0.097  0.00  0.00    +0.162 HD
ATOM      6  H   UNL     1      -0.606  -3.542  -0.623  0.00  0.00    +0.159 HD
ATOM      7  H   UNL     1      -2.192  -3.086  -0.304  0.00  0.00    +0.159 HD
ATOM      8  H   UNL     1      -1.547   0.176  -0.173  0.00  0.00    +0.190 HD
ENDROOT
BRANCH   1   9
ATOM      9  C   UNL     1       0.926   0.003  -0.109  0.00  0.00    +0.115 C 
BRANCH   9  10
ATOM     10  C   UNL     1       2.452  -0.022  -0.108  0.00  0.00    +0.022 C 
BRANCH  10  11
ATOM     11  C   UNL     1       3.007   1.400   0.011  0.00  0.00    +0.017 C 
BRANCH  11  12
ATOM     12  C   UNL     1       4.532   1.418   0.013  0.00  0.00    +0.078 C 
BRANCH  12  13
ATOM     13  N   UNL     1       5.008   2.792   0.121  0.00  0.00    -0.330 NA
ATOM     14  H   UNL     1       4.698   3.332  -0.685  0.00  0.00    +0.118 HD
ATOM     15  H   UNL     1       6.027   2.801   0.095  0.00  0.00    +0.118 HD
ENDBRANCH  12  13
ENDBRANCH  11  12
ENDBRANCH  10  11
ENDBRANCH   9  10
ENDBRANCH   1   9
TORSDOF 5
