REMARK  Name = 
REMARK  12 active torsions:
REMARK  status: ('A' for Active; 'I' for Inactive)
REMARK    1  A    between atoms: C_1  and  O_3
REMARK    2  A    between atoms: C_2  and  C_6
REMARK    3  A    between atoms: O_3  and  C_7
REMARK    4  A    between atoms: C_4  and  O_9
REMARK    5  A    between atoms: C_6  and  O_11
REMARK    6  A    between atoms: C_8  and  O_14
REMARK    7  A    between atoms: C_10  and  O_15
REMARK    8  A    between atoms: C_13  and  O_18
REMARK    9  A    between atoms: C_16  and  C_20
REMARK   10  A    between atoms: C_17  and  O_21
REMARK   11  A    between atoms: C_19  and  O_22
REMARK   12  A    between atoms: C_20  and  O_23
REMARK                            x       y       z     vdW  Elec       q    Type
REMARK                         _______ _______ _______ _____ _____    ______ ____
ROOT
ATOM      1  O   UNL     1       2.222   1.139  -3.516  0.00  0.00    -0.340 OA
ENDROOT
BRANCH   1   2
ATOM      2  C   UNL     1       1.416   0.049  -4.043  0.00  0.00    +0.183 C 
ATOM      3  C   UNL     1       1.645   0.027  -5.575  0.00  0.00    +0.178 C 
ATOM      4  C   UNL     1      -0.089   0.225  -3.742  0.00  0.00    +0.179 C 
ATOM      5  O   UNL     1       1.065   1.176  -6.213  0.00  0.00    -0.341 OA
ATOM      6  C   UNL     1      -0.614   1.495  -4.434  0.00  0.00    +0.201 C 
ATOM      7  C   UNL     1      -0.320   1.419  -5.948  0.00  0.00    +0.279 C 
BRANCH   4   8
ATOM      8  O   UNL     1      -0.864  -0.903  -4.155  0.00  0.00    -0.386 OA
ATOM      9  H   UNL     1      -0.416  -1.709  -3.829  0.00  0.00    +0.210 HD
ENDBRANCH   4   8
BRANCH   6  10
ATOM     10  O   UNL     1      -0.019   2.664  -3.857  0.00  0.00    -0.384 OA
ATOM     11  H   UNL     1       0.907   2.690  -4.176  0.00  0.00    +0.210 HD
ENDBRANCH   6  10
BRANCH   7  12
ATOM     12  O   UNL     1      -1.145   0.483  -6.621  0.00  0.00    -0.365 OA
ATOM     13  H   UNL     1      -1.457  -0.160  -5.955  0.00  0.00    +0.213 HD
ENDBRANCH   7  12
BRANCH   3  14
ATOM     14  C   UNL     1       1.250  -1.289  -6.269  0.00  0.00    +0.190 C 
BRANCH  14  15
ATOM     15  O   UNL     1       1.921  -2.401  -5.682  0.00  0.00    -0.392 OA
ATOM     16  H   UNL     1       2.770  -2.500  -6.151  0.00  0.00    +0.210 HD
ENDBRANCH  14  15
ENDBRANCH   3  14
ENDBRANCH   1   2
BRANCH   1  17
ATOM     17  C   UNL     1       2.166   1.265  -2.081  0.00  0.00    +0.282 C 
ATOM     18  O   UNL     1       2.585   0.041  -1.487  0.00  0.00    -0.341 OA
ATOM     19  C   UNL     1       3.080   2.429  -1.658  0.00  0.00    +0.201 C 
ATOM     20  C   UNL     1       2.591   0.037  -0.048  0.00  0.00    +0.178 C 
ATOM     21  C   UNL     1       3.063   2.579  -0.131  0.00  0.00    +0.179 C 
ATOM     22  C   UNL     1       3.373   1.230   0.546  0.00  0.00    +0.177 C 
BRANCH  19  23
ATOM     23  O   UNL     1       4.428   2.156  -2.096  0.00  0.00    -0.384 OA
ATOM     24  H   UNL     1       4.335   1.822  -3.010  0.00  0.00    +0.210 HD
ENDBRANCH  19  23
BRANCH  21  25
ATOM     25  O   UNL     1       1.837   3.157   0.321  0.00  0.00    -0.386 OA
ATOM     26  H   UNL     1       1.167   2.450   0.440  0.00  0.00    +0.210 HD
ENDBRANCH  21  25
BRANCH  22  27
ATOM     27  O   UNL     1       4.776   0.946   0.391  0.00  0.00    -0.386 OA
ATOM     28  H   UNL     1       5.009   1.150  -0.541  0.00  0.00    +0.210 HD
ENDBRANCH  22  27
BRANCH  20  29
ATOM     29  C   UNL     1       1.167  -0.148   0.503  0.00  0.00    +0.190 C 
BRANCH  29  30
ATOM     30  O   UNL     1       0.337   0.989   0.253  0.00  0.00    -0.392 OA
ATOM     31  H   UNL     1      -0.491   0.657  -0.131  0.00  0.00    +0.210 HD
ENDBRANCH  29  30
ENDBRANCH  20  29
ENDBRANCH   1  17
TORSDOF 12
