REMARK  Name = 
REMARK  1 active torsions:
REMARK  status: ('A' for Active; 'I' for Inactive)
REMARK    1  A    between atoms: C_1  and  C_4
REMARK                            x       y       z     vdW  Elec       q    Type
REMARK                         _______ _______ _______ _____ _____    ______ ____
ROOT
ATOM      1  C   UNL     1       1.379  -0.256   0.053  0.00  0.00    +0.014 A 
ATOM      2  C   UNL     1       0.489  -1.333   0.021  0.00  0.00    +0.011 A 
ATOM      3  C   UNL     1       0.903   1.058   0.035  0.00  0.00    +0.011 A 
ATOM      4  C   UNL     1      -0.885  -1.093  -0.020  0.00  0.00    +0.001 A 
ATOM      5  C   UNL     1      -0.473   1.292  -0.002  0.00  0.00    +0.001 A 
ATOM      6  C   UNL     1      -1.364   0.217  -0.027  0.00  0.00    +0.000 A 
ENDROOT
BRANCH   1   7
ATOM      7  C   UNL     1       2.834  -0.498   0.121  0.00  0.00    +0.258 C 
ATOM      8  O   UNL     1       3.308  -1.628   0.150  0.00  0.00    -0.296 OA
ENDBRANCH   1   7
TORSDOF 1
