REMARK  Name = 
REMARK  4 active torsions:
REMARK  status: ('A' for Active; 'I' for Inactive)
REMARK    1  A    between atoms: C_1  and  C_2
REMARK    2  A    between atoms: C_1  and  C_3
REMARK    3  A    between atoms: C_2  and  O_4
REMARK    4  A    between atoms: C_3  and  C_6
REMARK                            x       y       z     vdW  Elec       q    Type
REMARK                         _______ _______ _______ _____ _____    ______ ____
ROOT
ATOM      1  C   UNL     1       0.930  -0.063  -0.070  0.00  0.00    +0.127 C 
ENDROOT
BRANCH   1   2
ATOM      2  C   UNL     1       0.430  -1.349  -0.671  0.00  0.00    +0.305 C 
ATOM      3  O   UNL     1       1.139  -2.248  -1.092  0.00  0.00    -0.251 OA
BRANCH   2   4
ATOM      4  O   UNL     1      -0.920  -1.414  -0.699  0.00  0.00    -0.481 OA
ATOM      5  H   UNL     1      -1.361  -0.624  -0.330  0.00  0.00    +0.295 HD
ENDBRANCH   2   4
ENDBRANCH   1   2
BRANCH   1   6
ATOM      6  C   UNL     1       2.452  -0.011  -0.046  0.00  0.00    +0.082 C 
BRANCH   6   7
ATOM      7  C   UNL     1       2.947   1.277   0.554  0.00  0.00    +0.223 C 
ATOM      8  O   UNL     1       2.212   2.167   0.970  0.00  0.00    -0.301 OA
ENDBRANCH   6   7
ENDBRANCH   1   6
TORSDOF 4
