REMARK  Name = 
REMARK  24 active torsions:
REMARK  status: ('A' for Active; 'I' for Inactive)
REMARK    1  A    between atoms: C_1  and  C_2
REMARK    2  A    between atoms: C_1  and  C_29
REMARK    3  A    between atoms: C_2  and  C_3
REMARK    4  A    between atoms: C_3  and  C_4
REMARK    5  A    between atoms: C_5  and  C_6
REMARK    6  A    between atoms: C_5  and  C_7
REMARK    7  A    between atoms: C_7  and  C_8
REMARK    8  A    between atoms: C_8  and  C_9
REMARK    9  A    between atoms: C_8  and  C_11
REMARK   10  A    between atoms: C_10  and  C_11
REMARK   11  A    between atoms: C_10  and  O_12
REMARK   12  A    between atoms: O_12  and  P_13
REMARK   13  A    between atoms: P_13  and  O_14
REMARK   14  A    between atoms: P_13  and  O_15
REMARK   15  A    between atoms: C_17  and  C_18
REMARK   16  A    between atoms: C_18  and  C_20
REMARK   17  A    between atoms: C_19  and  C_21
REMARK   18  A    between atoms: C_21  and  C_22
REMARK   19  A    between atoms: C_22  and  C_23
REMARK   20  A    between atoms: C_23  and  C_25
REMARK   21  A    between atoms: C_24  and  C_26
REMARK   22  A    between atoms: C_26  and  C_27
REMARK   23  A    between atoms: C_27  and  C_28
REMARK   24  A    between atoms: C_28  and  C_30
REMARK                            x       y       z     vdW  Elec       q    Type
REMARK                         _______ _______ _______ _____ _____    ______ ____
ROOT
ATOM      1  C   UNL     1       6.799  -2.406  -6.906  0.00  0.00    +0.034 C 
ENDROOT
BRANCH   1   2
ATOM      2  C   UNL     1       7.335  -1.043  -6.496  0.00  0.00    -0.076 C 
ATOM      3  C   UNL     1       7.113   0.103  -7.443  0.00  0.00    +0.039 C 
ATOM      4  C   UNL     1       7.989  -0.820  -5.340  0.00  0.00    -0.028 C 
BRANCH   4   5
ATOM      5  C   UNL     1       8.292  -1.899  -4.346  0.00  0.00    +0.027 C 
BRANCH   5   6
ATOM      6  C   UNL     1       9.079  -1.417  -3.131  0.00  0.00    +0.007 C 
BRANCH   6   7
ATOM      7  C   UNL     1       9.362  -2.577  -2.158  0.00  0.00    -0.012 C 
ATOM      8  C   UNL     1      10.210  -3.679  -2.814  0.00  0.00    +0.007 C 
BRANCH   7   9
ATOM      9  C   UNL     1      10.027  -2.035  -0.884  0.00  0.00    +0.032 C 
BRANCH   9  10
ATOM     10  C   UNL     1      10.230  -3.140   0.138  0.00  0.00    +0.172 C 
BRANCH  10  11
ATOM     11  O   UNL     1      10.806  -2.619   1.320  0.00  0.00    -0.287 OA
BRANCH  11  12
ATOM     12  P   UNL     1      11.033  -3.877   2.485  0.00  0.00    +0.472 P 
ATOM     13  O   UNL     1      11.236  -5.004   3.528  0.00  0.00    -0.228 OA
BRANCH  12  14
ATOM     14  O   UNL     1      11.440  -2.656   3.489  0.00  0.00    -0.303 OA
ATOM     15  H   UNL     1      11.947  -2.015   2.959  0.00  0.00    +0.222 HD
ENDBRANCH  12  14
BRANCH  12  16
ATOM     16  O   UNL     1      12.519  -4.082   1.829  0.00  0.00    -0.303 OA
ATOM     17  H   UNL     1      12.693  -5.038   1.752  0.00  0.00    +0.222 HD
ENDBRANCH  12  16
ENDBRANCH  11  12
ENDBRANCH  10  11
ENDBRANCH   9  10
ENDBRANCH   7   9
ENDBRANCH   6   7
ENDBRANCH   5   6
ENDBRANCH   4   5
ENDBRANCH   1   2
BRANCH   1  18
ATOM     18  C   UNL     1       5.272  -2.479  -7.087  0.00  0.00    +0.031 C 
BRANCH  18  20
ATOM     19  C   UNL     1       3.329  -2.583  -5.433  0.00  0.00    -0.076 C 
ATOM     20  C   UNL     1       4.517  -2.098  -5.844  0.00  0.00    -0.028 C 
ATOM     21  C   UNL     1       2.581  -3.615  -6.232  0.00  0.00    +0.039 C 
BRANCH  19  22
ATOM     22  C   UNL     1       2.640  -2.088  -4.171  0.00  0.00    +0.034 C 
BRANCH  22  23
ATOM     23  C   UNL     1       2.985  -0.636  -3.782  0.00  0.00    +0.031 C 
BRANCH  23  25
ATOM     24  C   UNL     1       2.744   0.693  -1.641  0.00  0.00    -0.076 C 
ATOM     25  C   UNL     1       2.267  -0.187  -2.544  0.00  0.00    -0.028 C 
ATOM     26  C   UNL     1       4.081   1.362  -1.823  0.00  0.00    +0.039 C 
BRANCH  24  27
ATOM     27  C   UNL     1       1.977   1.115  -0.392  0.00  0.00    +0.034 C 
BRANCH  27  28
ATOM     28  C   UNL     1       0.615   0.429  -0.245  0.00  0.00    +0.031 C 
BRANCH  28  31
ATOM     29  C   UNL     1      -2.082  -0.739   0.346  0.00  0.00    +0.038 C 
ATOM     30  C   UNL     1      -1.400   0.263   1.225  0.00  0.00    -0.080 C 
ATOM     31  C   UNL     1      -0.181   0.796   0.970  0.00  0.00    -0.028 C 
ATOM     32  C   UNL     1      -2.161   0.681   2.455  0.00  0.00    +0.038 C 
ENDBRANCH  28  31
ENDBRANCH  27  28
ENDBRANCH  24  27
ENDBRANCH  23  25
ENDBRANCH  22  23
ENDBRANCH  19  22
ENDBRANCH  18  20
ENDBRANCH   1  18
TORSDOF 18
