REMARK  Name = 
REMARK  18 active torsions:
REMARK  status: ('A' for Active; 'I' for Inactive)
REMARK    1  A    between atoms: C_1  and  N_2
REMARK    2  A    between atoms: C_4  and  O_9
REMARK    3  A    between atoms: C_7  and  C_13
REMARK    4  A    between atoms: C_8  and  O_14
REMARK    5  A    between atoms: C_13  and  O_16
REMARK    6  A    between atoms: O_16  and  P_18
REMARK    7  A    between atoms: P_18  and  O_19
REMARK    8  A    between atoms: P_18  and  O_20
REMARK    9  A    between atoms: O_19  and  P_22
REMARK   10  A    between atoms: P_22  and  O_23
REMARK   11  A    between atoms: P_22  and  O_24
REMARK   12  A    between atoms: O_23  and  C_26
REMARK   13  A    between atoms: C_27  and  N_30
REMARK   14  A    between atoms: C_29  and  O_33
REMARK   15  A    between atoms: C_31  and  C_35
REMARK   16  A    between atoms: C_32  and  O_36
REMARK   17  A    between atoms: C_34  and  C_37
REMARK   18  A    between atoms: C_35  and  O_39
REMARK                            x       y       z     vdW  Elec       q    Type
REMARK                         _______ _______ _______ _____ _____    ______ ____
ROOT
ATOM      1  P   UNL     1      -1.820   1.773  -2.494  0.00  0.00    +0.483 P 
ATOM      2  O   UNL     1      -3.239   1.669  -3.105  0.00  0.00    -0.227 OA
ENDROOT
BRANCH   1   3
ATOM      3  O   UNL     1      -2.402   1.543  -0.992  0.00  0.00    -0.302 OA
ATOM      4  H   UNL     1      -3.379   1.557  -1.028  0.00  0.00    +0.222 HD
ENDBRANCH   1   3
BRANCH   1   5
ATOM      5  O   UNL     1      -1.418   0.231  -3.166  0.00  0.00    -0.186 OA
BRANCH   5   6
ATOM      6  P   UNL     1      -0.255  -0.553  -2.153  0.00  0.00    +0.486 P 
ATOM      7  O   UNL     1       0.786  -1.255  -1.246  0.00  0.00    -0.227 OA
BRANCH   6   8
ATOM      8  O   UNL     1      -0.685   0.085  -0.749  0.00  0.00    -0.302 OA
ATOM      9  H   UNL     1      -0.558   1.038  -0.596  0.00  0.00    +0.222 HD
ENDBRANCH   6   8
BRANCH   6  10
ATOM     10  O   UNL     1       0.944  -0.150  -3.180  0.00  0.00    -0.254 OA
BRANCH  10  11
ATOM     11  C   UNL     1       1.150  -1.159  -4.226  0.00  0.00    +0.285 C 
ATOM     12  C   UNL     1       1.513  -2.630  -3.816  0.00  0.00    +0.160 C 
ATOM     13  O   UNL     1       2.238  -0.786  -5.103  0.00  0.00    -0.341 OA
ATOM     14  C   UNL     1       2.702  -2.613  -2.850  0.00  0.00    +0.171 C 
ATOM     15  C   UNL     1       3.470  -0.587  -4.388  0.00  0.00    +0.178 C 
ATOM     16  C   UNL     1       3.751  -1.527  -3.183  0.00  0.00    +0.176 C 
BRANCH  12  17
ATOM     17  N   UNL     1       0.401  -3.497  -3.357  0.00  0.00    -0.305 N 
ATOM     18  C   UNL     1      -0.365  -4.215  -4.261  0.00  0.00    +0.210 C 
ATOM     19  C   UNL     1      -1.282  -5.259  -3.664  0.00  0.00    +0.109 C 
ATOM     20  O   UNL     1      -0.302  -4.037  -5.473  0.00  0.00    -0.276 OA
ATOM     21  H   UNL     1       0.322  -3.705  -2.367  0.00  0.00    +0.149 HD
ENDBRANCH  12  17
BRANCH  16  22
ATOM     22  O   UNL     1       3.994  -0.657  -2.056  0.00  0.00    -0.387 OA
ATOM     23  H   UNL     1       3.532  -1.000  -1.270  0.00  0.00    +0.210 HD
ENDBRANCH  16  22
BRANCH  14  24
ATOM     24  O   UNL     1       3.335  -3.909  -2.836  0.00  0.00    -0.387 OA
ATOM     25  H   UNL     1       2.666  -4.547  -2.528  0.00  0.00    +0.210 HD
ENDBRANCH  14  24
BRANCH  15  26
ATOM     26  C   UNL     1       4.677  -0.686  -5.346  0.00  0.00    +0.190 C 
BRANCH  26  27
ATOM     27  O   UNL     1       4.569   0.208  -6.448  0.00  0.00    -0.392 OA
ATOM     28  H   UNL     1       3.647   0.148  -6.756  0.00  0.00    +0.210 HD
ENDBRANCH  26  27
ENDBRANCH  15  26
ENDBRANCH  10  11
ENDBRANCH   6  10
ENDBRANCH   5   6
ENDBRANCH   1   5
BRANCH   1  29
ATOM     29  O   UNL     1      -0.235   1.890  -1.811  0.00  0.00    -0.284 OA
BRANCH  29  30
ATOM     30  C   UNL     1       0.692   2.679  -2.605  0.00  0.00    +0.206 C 
BRANCH  30  34
ATOM     31  C   UNL     1       3.746   4.379  -2.692  0.00  0.00    +0.255 C 
ATOM     32  O   UNL     1       2.959   3.304  -3.226  0.00  0.00    -0.346 OA
ATOM     33  C   UNL     1       3.205   4.713  -1.295  0.00  0.00    +0.195 C 
ATOM     34  C   UNL     1       2.191   2.673  -2.162  0.00  0.00    +0.178 C 
ATOM     35  C   UNL     1       2.569   3.396  -0.858  0.00  0.00    +0.178 C 
BRANCH  31  36
ATOM     36  N   UNL     1       3.744   5.514  -3.630  0.00  0.00    -0.271 N 
ATOM     37  C   UNL     1       2.533   6.136  -3.939  0.00  0.00    +0.331 A 
ATOM     38  C   UNL     1       4.947   6.004  -4.108  0.00  0.00    +0.098 A 
ATOM     39  N   UNL     1       2.611   7.223  -4.768  0.00  0.00    -0.275 N 
ATOM     40  O   UNL     1       1.448   5.794  -3.486  0.00  0.00    -0.246 OA
ATOM     41  C   UNL     1       5.018   7.089  -4.887  0.00  0.00    +0.088 A 
ATOM     42  C   UNL     1       3.767   7.798  -5.232  0.00  0.00    +0.254 A 
ATOM     43  O   UNL     1       3.788   8.846  -5.854  0.00  0.00    -0.268 OA
ATOM     44  H   UNL     1       1.746   7.702  -4.981  0.00  0.00    +0.173 HD
ENDBRANCH  31  36
BRANCH  35  45
ATOM     45  O   UNL     1       3.535   2.639  -0.106  0.00  0.00    -0.386 OA
ATOM     46  H   UNL     1       4.420   2.775  -0.497  0.00  0.00    +0.210 HD
ENDBRANCH  35  45
BRANCH  33  47
ATOM     47  O   UNL     1       4.261   5.140  -0.425  0.00  0.00    -0.385 OA
ATOM     48  H   UNL     1       3.941   5.044   0.492  0.00  0.00    +0.210 HD
ENDBRANCH  33  47
ENDBRANCH  30  34
ENDBRANCH  29  30
ENDBRANCH   1  29
TORSDOF 17
