REMARK  Name = 
REMARK  4 active torsions:
REMARK  status: ('A' for Active; 'I' for Inactive)
REMARK    1  A    between atoms: C_1  and  C_2
REMARK    2  A    between atoms: C_1  and  N_3
REMARK    3  A    between atoms: C_2  and  O_5
REMARK    4  A    between atoms: N_3  and  C_6
REMARK                            x       y       z     vdW  Elec       q    Type
REMARK                         _______ _______ _______ _____ _____    ______ ____
ROOT
ATOM      1  C   UNL     1       0.922   0.079   0.061  0.00  0.00    +0.202 C 
ENDROOT
BRANCH   1   2
ATOM      2  N   UNL     1       2.384  -0.166   0.089  0.00  0.00    -0.310 NA
ATOM      3  C   UNL     1       2.885   0.019   1.453  0.00  0.00    +0.101 C 
ATOM      4  H   UNL     1       2.829   0.547  -0.500  0.00  0.00    +0.122 HD
ENDBRANCH   1   2
BRANCH   1   5
ATOM      5  C   UNL     1       0.419  -0.129  -1.369  0.00  0.00    +0.319 C 
ATOM      6  O   UNL     1      -0.429   0.563  -1.911  0.00  0.00    -0.250 OA
BRANCH   5   7
ATOM      7  O   UNL     1       1.005  -1.202  -1.955  0.00  0.00    -0.480 OA
ATOM      8  H   UNL     1       1.695  -1.541  -1.339  0.00  0.00    +0.295 HD
ENDBRANCH   5   7
ENDBRANCH   1   5
TORSDOF 3
