REMARK  Name = 
REMARK  8 active torsions:
REMARK  status: ('A' for Active; 'I' for Inactive)
REMARK    1  A    between atoms: N_1  and  C_3
REMARK    2  A    between atoms: C_8  and  O_14
REMARK    3  A    between atoms: C_12  and  C_17
REMARK    4  A    between atoms: C_13  and  O_18
REMARK    5  A    between atoms: C_17  and  O_19
REMARK    6  A    between atoms: O_19  and  P_20
REMARK    7  A    between atoms: P_20  and  O_21
REMARK    8  A    between atoms: P_20  and  O_22
REMARK                            x       y       z     vdW  Elec       q    Type
REMARK                         _______ _______ _______ _____ _____    ______ ____
ROOT
ATOM      1  C   UNL     1       2.003  -2.507  -0.007  0.00  0.00    +0.253 C 
ATOM      2  O   UNL     1       2.758  -2.811   1.195  0.00  0.00    -0.346 OA
ATOM      3  C   UNL     1       2.918  -2.814  -1.196  0.00  0.00    +0.195 C 
ATOM      4  C   UNL     1       3.955  -3.542   0.838  0.00  0.00    +0.178 C 
ATOM      5  C   UNL     1       3.777  -3.935  -0.633  0.00  0.00    +0.178 C 
ENDROOT
BRANCH   1   6
ATOM      6  N   UNL     1       1.557  -1.121   0.027  0.00  0.00    -0.285 N 
ATOM      7  C   UNL     1       0.405  -0.624  -0.522  0.00  0.00    +0.169 A 
ATOM      8  C   UNL     1       2.208  -0.063   0.608  0.00  0.00    +0.203 A 
ATOM      9  C   UNL     1       0.443   0.731  -0.280  0.00  0.00    +0.172 A 
ATOM     10  N   UNL     1      -0.544  -1.336  -1.189  0.00  0.00    -0.218 NA
ATOM     11  N   UNL     1       1.577   1.075   0.419  0.00  0.00    -0.229 NA
ATOM     12  C   UNL     1      -0.654   1.539  -0.768  0.00  0.00    +0.279 A 
ATOM     13  C   UNL     1      -1.507  -0.586  -1.608  0.00  0.00    +0.201 A 
ATOM     14  N   UNL     1      -1.611   0.780  -1.445  0.00  0.00    -0.312 N 
ATOM     15  O   UNL     1      -0.756   2.746  -0.624  0.00  0.00    -0.265 OA
ATOM     16  H   UNL     1      -2.402   1.310  -1.802  0.00  0.00    +0.170 HD
ENDBRANCH   1   6
BRANCH   3  17
ATOM     17  O   UNL     1       2.230  -3.236  -2.372  0.00  0.00    -0.385 OA
ATOM     18  H   UNL     1       2.075  -4.198  -2.274  0.00  0.00    +0.210 HD
ENDBRANCH   3  17
BRANCH   5  19
ATOM     19  O   UNL     1       3.055  -5.174  -0.762  0.00  0.00    -0.386 OA
ATOM     20  H   UNL     1       2.483  -5.297   0.025  0.00  0.00    +0.210 HD
ENDBRANCH   5  19
BRANCH   4  21
ATOM     21  C   UNL     1       5.203  -2.673   1.056  0.00  0.00    +0.206 C 
BRANCH  21  22
ATOM     22  O   UNL     1       5.330  -2.276   2.430  0.00  0.00    -0.284 OA
BRANCH  22  23
ATOM     23  P   UNL     1       6.690  -1.273   2.803  0.00  0.00    +0.472 P 
ATOM     24  O   UNL     1       7.907  -0.376   3.137  0.00  0.00    -0.228 OA
BRANCH  23  25
ATOM     25  O   UNL     1       6.112  -0.235   1.679  0.00  0.00    -0.303 OA
ATOM     26  H   UNL     1       6.834   0.391   1.461  0.00  0.00    +0.222 HD
ENDBRANCH  23  25
BRANCH  23  27
ATOM     27  O   UNL     1       5.788  -0.758   4.060  0.00  0.00    -0.303 OA
ATOM     28  H   UNL     1       5.135  -1.441   4.294  0.00  0.00    +0.222 HD
ENDBRANCH  23  27
ENDBRANCH  22  23
ENDBRANCH  21  22
ENDBRANCH   4  21
TORSDOF 8
