MODEL 1
REMARK VINA RESULT:    -7.357      0.000      0.000
REMARK INTER + INTRA:         -10.876
REMARK INTER:                 -10.153
REMARK INTRA:                  -0.723
REMARK UNBOUND:                -0.723
REMARK  Name = 107971
REMARK  9 active torsions:
REMARK  status: ('A' for Active; 'I' for Inactive)
REMARK    1  A    between atoms: O_2  and  C_14
REMARK    2  A    between atoms: O_2  and  C_16
REMARK    3  A    between atoms: O_3  and  C_10
REMARK    4  A    between atoms: O_4  and  C_11
REMARK    5  A    between atoms: O_5  and  C_12
REMARK    6  A    between atoms: O_6  and  C_15
REMARK    7  A    between atoms: O_9  and  C_30
REMARK    8  A    between atoms: C_13  and  C_15
REMARK    9  A    between atoms: C_23  and  C_25
REMARK                            x       y       z     vdW  Elec       q    Type
REMARK                         _______ _______ _______ _____ _____    ______ ____
ROOT
ATOM      1  O   UNL     1      48.178  25.747   6.340  0.00  0.00    +0.000 OA
ATOM      2  O   UNL     1      51.861  27.229   5.404  0.00  0.00    +0.000 OA
ATOM      3  C   UNL     1      50.142  24.258   9.047  0.00  0.00    +0.000 A 
ATOM      4  C   UNL     1      49.061  24.613   8.230  0.00  0.00    +0.000 A 
ATOM      5  C   UNL     1      51.435  24.664   8.700  0.00  0.00    +0.000 A 
ATOM      6  C   UNL     1      49.271  25.420   7.107  0.00  0.00    +0.000 A 
ATOM      7  C   UNL     1      50.553  25.868   6.803  0.00  0.00    +0.000 A 
ATOM      8  C   UNL     1      51.641  25.481   7.590  0.00  0.00    +0.000 A 
ATOM      9  C   UNL     1      50.758  26.762   5.651  0.00  0.00    +0.000 A 
ATOM     10  C   UNL     1      49.555  27.070   4.838  0.00  0.00    +0.000 A 
ATOM     11  C   UNL     1      48.386  26.543   5.235  0.00  0.00    +0.000 A 
ENDROOT
BRANCH  10  12
ATOM     12  C   UNL     1      49.635  27.926   3.650  0.00  0.00    +0.000 A 
ATOM     13  C   UNL     1      48.944  29.146   3.610  0.00  0.00    +0.000 A 
ATOM     14  C   UNL     1      50.405  27.537   2.547  0.00  0.00    +0.000 A 
ATOM     15  C   UNL     1      49.019  29.966   2.479  0.00  0.00    +0.000 A 
ATOM     16  C   UNL     1      50.478  28.355   1.417  0.00  0.00    +0.000 A 
ATOM     17  C   UNL     1      49.785  29.560   1.391  0.00  0.00    +0.000 A 
BRANCH  17  18
ATOM     18  O   UNL     1      49.884  30.326   0.268  0.00  0.00    +0.000 OA
ATOM     19  H   UNL     1      49.388  31.149   0.407  0.00  0.00    +0.000 HD
ENDBRANCH  17  18
ENDBRANCH  10  12
BRANCH   3  20
ATOM     20  O   UNL     1      49.848  23.505  10.155  0.00  0.00    +0.000 OA
BRANCH  20  26
ATOM     21  O   UNL     1      47.959  23.353  11.560  0.00  0.00    +0.000 OA
ATOM     22  C   UNL     1      46.955  21.078  10.129  0.00  0.00    +0.000 C 
ATOM     23  C   UNL     1      46.372  21.502  11.487  0.00  0.00    +0.000 C 
ATOM     24  C   UNL     1      48.413  21.552   9.972  0.00  0.00    +0.000 C 
ATOM     25  C   UNL     1      46.569  23.009  11.678  0.00  0.00    +0.000 C 
ATOM     26  C   UNL     1      48.481  23.071  10.253  0.00  0.00    +0.000 C 
BRANCH  22  27
ATOM     27  O   UNL     1      46.838  19.662   9.960  0.00  0.00    +0.000 OA
ATOM     28  H   UNL     1      47.681  19.248  10.218  0.00  0.00    +0.000 HD
ENDBRANCH  22  27
BRANCH  23  29
ATOM     29  O   UNL     1      44.987  21.167  11.595  0.00  0.00    +0.000 OA
ATOM     30  H   UNL     1      44.575  21.723  12.280  0.00  0.00    +0.000 HD
ENDBRANCH  23  29
BRANCH  24  31
ATOM     31  O   UNL     1      48.899  21.230   8.660  0.00  0.00    +0.000 OA
ATOM     32  H   UNL     1      48.950  20.264   8.567  0.00  0.00    +0.000 HD
ENDBRANCH  24  31
BRANCH  25  33
ATOM     33  C   UNL     1      46.076  23.465  13.056  0.00  0.00    +0.000 C 
BRANCH  33  34
ATOM     34  O   UNL     1      44.683  23.774  12.982  0.00  0.00    +0.000 OA
ATOM     35  H   UNL     1      44.216  22.933  13.139  0.00  0.00    +0.000 HD
ENDBRANCH  33  34
ENDBRANCH  25  33
ENDBRANCH  20  26
ENDBRANCH   3  20
TORSDOF 9
ENDMDL
MODEL 2
REMARK VINA RESULT:    -6.810      3.971      5.393
REMARK INTER + INTRA:         -10.121
REMARK INTER:                  -9.238
REMARK INTRA:                  -0.883
REMARK UNBOUND:                -0.723
REMARK  Name = 107971
REMARK  9 active torsions:
REMARK  status: ('A' for Active; 'I' for Inactive)
REMARK    1  A    between atoms: O_2  and  C_14
REMARK    2  A    between atoms: O_2  and  C_16
REMARK    3  A    between atoms: O_3  and  C_10
REMARK    4  A    between atoms: O_4  and  C_11
REMARK    5  A    between atoms: O_5  and  C_12
REMARK    6  A    between atoms: O_6  and  C_15
REMARK    7  A    between atoms: O_9  and  C_30
REMARK    8  A    between atoms: C_13  and  C_15
REMARK    9  A    between atoms: C_23  and  C_25
REMARK                            x       y       z     vdW  Elec       q    Type
REMARK                         _______ _______ _______ _____ _____    ______ ____
ROOT
ATOM      1  O   UNL     1      48.950  27.329   9.046  0.00  0.00    +0.000 OA
ATOM      2  O   UNL     1      46.672  30.310   7.445  0.00  0.00    +0.000 OA
ATOM      3  C   UNL     1      46.773  28.038  11.903  0.00  0.00    +0.000 A 
ATOM      4  C   UNL     1      47.763  27.459  11.099  0.00  0.00    +0.000 A 
ATOM      5  C   UNL     1      46.042  29.129  11.423  0.00  0.00    +0.000 A 
ATOM      6  C   UNL     1      47.973  27.934   9.800  0.00  0.00    +0.000 A 
ATOM      7  C   UNL     1      47.198  28.983   9.310  0.00  0.00    +0.000 A 
ATOM      8  C   UNL     1      46.241  29.592  10.124  0.00  0.00    +0.000 A 
ATOM      9  C   UNL     1      47.387  29.441   7.924  0.00  0.00    +0.000 A 
ATOM     10  C   UNL     1      48.468  28.776   7.155  0.00  0.00    +0.000 A 
ATOM     11  C   UNL     1      49.154  27.798   7.767  0.00  0.00    +0.000 A 
ENDROOT
BRANCH  10  12
ATOM     12  C   UNL     1      48.772  29.163   5.773  0.00  0.00    +0.000 A 
ATOM     13  C   UNL     1      49.626  30.243   5.513  0.00  0.00    +0.000 A 
ATOM     14  C   UNL     1      48.215  28.454   4.700  0.00  0.00    +0.000 A 
ATOM     15  C   UNL     1      49.920  30.613   4.196  0.00  0.00    +0.000 A 
ATOM     16  C   UNL     1      48.507  28.825   3.386  0.00  0.00    +0.000 A 
ATOM     17  C   UNL     1      49.354  29.901   3.144  0.00  0.00    +0.000 A 
BRANCH  17  18
ATOM     18  O   UNL     1      49.610  30.229   1.846  0.00  0.00    +0.000 OA
ATOM     19  H   UNL     1      48.997  30.932   1.576  0.00  0.00    +0.000 HD
ENDBRANCH  17  18
ENDBRANCH  10  12
BRANCH   3  20
ATOM     20  O   UNL     1      46.597  27.485  13.147  0.00  0.00    +0.000 OA
BRANCH  20  26
ATOM     21  O   UNL     1      44.673  28.058  14.386  0.00  0.00    +0.000 OA
ATOM     22  C   UNL     1      43.794  25.329  14.473  0.00  0.00    +0.000 C 
ATOM     23  C   UNL     1      43.157  26.414  15.357  0.00  0.00    +0.000 C 
ATOM     24  C   UNL     1      45.238  25.701  14.084  0.00  0.00    +0.000 C 
ATOM     25  C   UNL     1      43.294  27.777  14.672  0.00  0.00    +0.000 C 
ATOM     26  C   UNL     1      45.243  27.118  13.465  0.00  0.00    +0.000 C 
BRANCH  22  27
ATOM     27  O   UNL     1      43.732  24.057  15.127  0.00  0.00    +0.000 OA
ATOM     28  H   UNL     1      43.505  23.379  14.465  0.00  0.00    +0.000 HD
ENDBRANCH  22  27
BRANCH  23  29
ATOM     29  O   UNL     1      41.782  26.133  15.628  0.00  0.00    +0.000 OA
ATOM     30  H   UNL     1      41.648  25.169  15.638  0.00  0.00    +0.000 HD
ENDBRANCH  23  29
BRANCH  24  31
ATOM     31  O   UNL     1      45.774  24.722  13.180  0.00  0.00    +0.000 OA
ATOM     32  H   UNL     1      45.197  23.940  13.178  0.00  0.00    +0.000 HD
ENDBRANCH  24  31
BRANCH  25  33
ATOM     33  C   UNL     1      42.745  28.902  15.555  0.00  0.00    +0.000 C 
BRANCH  33  34
ATOM     34  O   UNL     1      41.320  28.807  15.612  0.00  0.00    +0.000 OA
ATOM     35  H   UNL     1      41.093  28.799  16.560  0.00  0.00    +0.000 HD
ENDBRANCH  33  34
ENDBRANCH  25  33
ENDBRANCH  20  26
ENDBRANCH   3  20
TORSDOF 9
ENDMDL
MODEL 3
REMARK VINA RESULT:    -6.551      1.515      2.117
REMARK INTER + INTRA:          -9.762
REMARK INTER:                  -8.898
REMARK INTRA:                  -0.864
REMARK UNBOUND:                -0.723
REMARK  Name = 107971
REMARK  9 active torsions:
REMARK  status: ('A' for Active; 'I' for Inactive)
REMARK    1  A    between atoms: O_2  and  C_14
REMARK    2  A    between atoms: O_2  and  C_16
REMARK    3  A    between atoms: O_3  and  C_10
REMARK    4  A    between atoms: O_4  and  C_11
REMARK    5  A    between atoms: O_5  and  C_12
REMARK    6  A    between atoms: O_6  and  C_15
REMARK    7  A    between atoms: O_9  and  C_30
REMARK    8  A    between atoms: C_13  and  C_15
REMARK    9  A    between atoms: C_23  and  C_25
REMARK                            x       y       z     vdW  Elec       q    Type
REMARK                         _______ _______ _______ _____ _____    ______ ____
ROOT
ATOM      1  O   UNL     1      48.331  25.679   6.288  0.00  0.00    +0.000 OA
ATOM      2  O   UNL     1      51.258  28.518   6.179  0.00  0.00    +0.000 OA
ATOM      3  C   UNL     1      49.669  25.310   9.677  0.00  0.00    +0.000 A 
ATOM      4  C   UNL     1      48.881  25.130   8.532  0.00  0.00    +0.000 A 
ATOM      5  C   UNL     1      50.745  26.201   9.642  0.00  0.00    +0.000 A 
ATOM      6  C   UNL     1      49.136  25.885   7.383  0.00  0.00    +0.000 A 
ATOM      7  C   UNL     1      50.173  26.814   7.379  0.00  0.00    +0.000 A 
ATOM      8  C   UNL     1      50.989  26.965   8.502  0.00  0.00    +0.000 A 
ATOM      9  C   UNL     1      50.401  27.645   6.184  0.00  0.00    +0.000 A 
ATOM     10  C   UNL     1      49.524  27.372   5.019  0.00  0.00    +0.000 A 
ATOM     11  C   UNL     1      48.583  26.425   5.158  0.00  0.00    +0.000 A 
ENDROOT
BRANCH  10  12
ATOM     12  C   UNL     1      49.671  28.114   3.762  0.00  0.00    +0.000 A 
ATOM     13  C   UNL     1      50.612  27.707   2.806  0.00  0.00    +0.000 A 
ATOM     14  C   UNL     1      48.869  29.233   3.503  0.00  0.00    +0.000 A 
ATOM     15  C   UNL     1      50.752  28.411   1.606  0.00  0.00    +0.000 A 
ATOM     16  C   UNL     1      49.011  29.937   2.305  0.00  0.00    +0.000 A 
ATOM     17  C   UNL     1      49.951  29.523   1.368  0.00  0.00    +0.000 A 
BRANCH  17  18
ATOM     18  O   UNL     1      50.056  30.241   0.214  0.00  0.00    +0.000 OA
ATOM     19  H   UNL     1      50.910  30.703   0.212  0.00  0.00    +0.000 HD
ENDBRANCH  17  18
ENDBRANCH  10  12
BRANCH   3  20
ATOM     20  O   UNL     1      49.325  24.566  10.777  0.00  0.00    +0.000 OA
BRANCH  20  26
ATOM     21  O   UNL     1      47.573  22.997  10.594  0.00  0.00    +0.000 OA
ATOM     22  C   UNL     1      49.316  20.821  11.272  0.00  0.00    +0.000 C 
ATOM     23  C   UNL     1      47.787  20.656  11.243  0.00  0.00    +0.000 C 
ATOM     24  C   UNL     1      49.715  22.288  11.530  0.00  0.00    +0.000 C 
ATOM     25  C   UNL     1      47.185  21.657  10.252  0.00  0.00    +0.000 C 
ATOM     26  C   UNL     1      48.991  23.194  10.506  0.00  0.00    +0.000 C 
BRANCH  22  27
ATOM     27  O   UNL     1      49.891  19.938  12.240  0.00  0.00    +0.000 OA
ATOM     28  H   UNL     1      49.332  19.143  12.305  0.00  0.00    +0.000 HD
ENDBRANCH  22  27
BRANCH  23  29
ATOM     29  O   UNL     1      47.407  19.324  10.892  0.00  0.00    +0.000 OA
ATOM     30  H   UNL     1      47.538  18.741  11.660  0.00  0.00    +0.000 HD
ENDBRANCH  23  29
BRANCH  24  31
ATOM     31  O   UNL     1      51.142  22.432  11.454  0.00  0.00    +0.000 OA
ATOM     32  H   UNL     1      51.355  23.300  11.075  0.00  0.00    +0.000 HD
ENDBRANCH  24  31
BRANCH  25  33
ATOM     33  C   UNL     1      45.653  21.585  10.249  0.00  0.00    +0.000 C 
BRANCH  33  34
ATOM     34  O   UNL     1      45.229  20.581   9.324  0.00  0.00    +0.000 OA
ATOM     35  H   UNL     1      46.018  20.355   8.798  0.00  0.00    +0.000 HD
ENDBRANCH  33  34
ENDBRANCH  25  33
ENDBRANCH  20  26
ENDBRANCH   3  20
TORSDOF 9
ENDMDL
MODEL 4
REMARK VINA RESULT:    -6.435      5.154     10.328
REMARK INTER + INTRA:          -9.603
REMARK INTER:                  -8.744
REMARK INTRA:                  -0.859
REMARK UNBOUND:                -0.723
REMARK  Name = 107971
REMARK  9 active torsions:
REMARK  status: ('A' for Active; 'I' for Inactive)
REMARK    1  A    between atoms: O_2  and  C_14
REMARK    2  A    between atoms: O_2  and  C_16
REMARK    3  A    between atoms: O_3  and  C_10
REMARK    4  A    between atoms: O_4  and  C_11
REMARK    5  A    between atoms: O_5  and  C_12
REMARK    6  A    between atoms: O_6  and  C_15
REMARK    7  A    between atoms: O_9  and  C_30
REMARK    8  A    between atoms: C_13  and  C_15
REMARK    9  A    between atoms: C_23  and  C_25
REMARK                            x       y       z     vdW  Elec       q    Type
REMARK                         _______ _______ _______ _____ _____    ______ ____
ROOT
ATOM      1  O   UNL     1      47.626  31.643  10.259  0.00  0.00    +0.000 OA
ATOM      2  O   UNL     1      45.108  28.436  10.351  0.00  0.00    +0.000 OA
ATOM      3  C   UNL     1      48.776  29.876   7.265  0.00  0.00    +0.000 A 
ATOM      4  C   UNL     1      48.654  30.840   8.274  0.00  0.00    +0.000 A 
ATOM      5  C   UNL     1      47.999  28.714   7.320  0.00  0.00    +0.000 A 
ATOM      6  C   UNL     1      47.715  30.666   9.296  0.00  0.00    +0.000 A 
ATOM      7  C   UNL     1      46.905  29.534   9.309  0.00  0.00    +0.000 A 
ATOM      8  C   UNL     1      47.053  28.548   8.330  0.00  0.00    +0.000 A 
ATOM      9  C   UNL     1      45.881  29.384  10.357  0.00  0.00    +0.000 A 
ATOM     10  C   UNL     1      45.837  30.449  11.388  0.00  0.00    +0.000 A 
ATOM     11  C   UNL     1      46.700  31.470  11.263  0.00  0.00    +0.000 A 
ENDROOT
BRANCH  10  12
ATOM     12  C   UNL     1      44.880  30.399  12.499  0.00  0.00    +0.000 A 
ATOM     13  C   UNL     1      45.195  29.699  13.672  0.00  0.00    +0.000 A 
ATOM     14  C   UNL     1      43.646  31.054  12.400  0.00  0.00    +0.000 A 
ATOM     15  C   UNL     1      44.285  29.651  14.734  0.00  0.00    +0.000 A 
ATOM     16  C   UNL     1      42.737  31.004  13.460  0.00  0.00    +0.000 A 
ATOM     17  C   UNL     1      43.063  30.303  14.616  0.00  0.00    +0.000 A 
BRANCH  17  18
ATOM     18  O   UNL     1      42.145  30.280  15.624  0.00  0.00    +0.000 OA
ATOM     19  H   UNL     1      41.890  31.193  15.834  0.00  0.00    +0.000 HD
ENDBRANCH  17  18
ENDBRANCH  10  12
BRANCH   3  20
ATOM     20  O   UNL     1      49.685  30.143   6.273  0.00  0.00    +0.000 OA
BRANCH  20  26
ATOM     21  O   UNL     1      50.439  28.247   5.088  0.00  0.00    +0.000 OA
ATOM     22  C   UNL     1      49.695  29.401   2.569  0.00  0.00    +0.000 C 
ATOM     23  C   UNL     1      50.580  28.146   2.656  0.00  0.00    +0.000 C 
ATOM     24  C   UNL     1      49.808  30.255   3.848  0.00  0.00    +0.000 C 
ATOM     25  C   UNL     1      50.266  27.389   3.950  0.00  0.00    +0.000 C 
ATOM     26  C   UNL     1      49.532  29.358   5.078  0.00  0.00    +0.000 C 
BRANCH  22  27
ATOM     27  O   UNL     1      50.020  30.157   1.398  0.00  0.00    +0.000 OA
ATOM     28  H   UNL     1      49.714  31.073   1.525  0.00  0.00    +0.000 HD
ENDBRANCH  22  27
BRANCH  23  29
ATOM     29  O   UNL     1      50.395  27.292   1.525  0.00  0.00    +0.000 OA
ATOM     30  H   UNL     1      49.874  27.762   0.850  0.00  0.00    +0.000 HD
ENDBRANCH  23  29
BRANCH  24  31
ATOM     31  O   UNL     1      48.900  31.365   3.782  0.00  0.00    +0.000 OA
ATOM     32  H   UNL     1      49.407  32.193   3.799  0.00  0.00    +0.000 HD
ENDBRANCH  24  31
BRANCH  25  33
ATOM     33  C   UNL     1      51.183  26.172   4.119  0.00  0.00    +0.000 C 
BRANCH  33  34
ATOM     34  O   UNL     1      50.633  25.062   3.405  0.00  0.00    +0.000 OA
ATOM     35  H   UNL     1      51.377  24.670   2.913  0.00  0.00    +0.000 HD
ENDBRANCH  33  34
ENDBRANCH  25  33
ENDBRANCH  20  26
ENDBRANCH   3  20
TORSDOF 9
ENDMDL
MODEL 5
REMARK VINA RESULT:    -6.406      4.638      6.118
REMARK INTER + INTRA:          -9.563
REMARK INTER:                  -8.971
REMARK INTRA:                  -0.592
REMARK UNBOUND:                -0.723
REMARK  Name = 107971
REMARK  9 active torsions:
REMARK  status: ('A' for Active; 'I' for Inactive)
REMARK    1  A    between atoms: O_2  and  C_14
REMARK    2  A    between atoms: O_2  and  C_16
REMARK    3  A    between atoms: O_3  and  C_10
REMARK    4  A    between atoms: O_4  and  C_11
REMARK    5  A    between atoms: O_5  and  C_12
REMARK    6  A    between atoms: O_6  and  C_15
REMARK    7  A    between atoms: O_9  and  C_30
REMARK    8  A    between atoms: C_13  and  C_15
REMARK    9  A    between atoms: C_23  and  C_25
REMARK                            x       y       z     vdW  Elec       q    Type
REMARK                         _______ _______ _______ _____ _____    ______ ____
ROOT
ATOM      1  O   UNL     1      46.792  28.192   8.590  0.00  0.00    +0.000 OA
ATOM      2  O   UNL     1      47.690  31.928   7.220  0.00  0.00    +0.000 OA
ATOM      3  C   UNL     1      45.524  30.189  11.384  0.00  0.00    +0.000 A 
ATOM      4  C   UNL     1      45.850  29.093  10.574  0.00  0.00    +0.000 A 
ATOM      5  C   UNL     1      45.907  31.476  10.994  0.00  0.00    +0.000 A 
ATOM      6  C   UNL     1      46.501  29.297   9.353  0.00  0.00    +0.000 A 
ATOM      7  C   UNL     1      46.825  30.588   8.946  0.00  0.00    +0.000 A 
ATOM      8  C   UNL     1      46.542  31.680   9.770  0.00  0.00    +0.000 A 
ATOM      9  C   UNL     1      47.460  30.800   7.634  0.00  0.00    +0.000 A 
ATOM     10  C   UNL     1      47.778  29.578   6.855  0.00  0.00    +0.000 A 
ATOM     11  C   UNL     1      47.432  28.395   7.387  0.00  0.00    +0.000 A 
ENDROOT
BRANCH  10  12
ATOM     12  C   UNL     1      48.436  29.656   5.547  0.00  0.00    +0.000 A 
ATOM     13  C   UNL     1      49.506  30.539   5.344  0.00  0.00    +0.000 A 
ATOM     14  C   UNL     1      48.006  28.845   4.488  0.00  0.00    +0.000 A 
ATOM     15  C   UNL     1      50.137  30.615   4.098  0.00  0.00    +0.000 A 
ATOM     16  C   UNL     1      48.635  28.922   3.244  0.00  0.00    +0.000 A 
ATOM     17  C   UNL     1      49.693  29.805   3.058  0.00  0.00    +0.000 A 
BRANCH  17  18
ATOM     18  O   UNL     1      50.276  29.848   1.826  0.00  0.00    +0.000 OA
ATOM     19  H   UNL     1      49.579  29.918   1.154  0.00  0.00    +0.000 HD
ENDBRANCH  17  18
ENDBRANCH  10  12
BRANCH   3  20
ATOM     20  O   UNL     1      44.844  29.910  12.543  0.00  0.00    +0.000 OA
BRANCH  20  26
ATOM     21  O   UNL     1      44.041  27.849  13.362  0.00  0.00    +0.000 OA
ATOM     22  C   UNL     1      46.194  27.646  15.248  0.00  0.00    +0.000 C 
ATOM     23  C   UNL     1      44.963  26.727  15.321  0.00  0.00    +0.000 C 
ATOM     24  C   UNL     1      45.857  28.976  14.545  0.00  0.00    +0.000 C 
ATOM     25  C   UNL     1      44.363  26.566  13.921  0.00  0.00    +0.000 C 
ATOM     26  C   UNL     1      45.202  28.671  13.178  0.00  0.00    +0.000 C 
BRANCH  22  27
ATOM     27  O   UNL     1      46.730  27.860  16.557  0.00  0.00    +0.000 OA
ATOM     28  H   UNL     1      46.567  28.786  16.812  0.00  0.00    +0.000 HD
ENDBRANCH  22  27
BRANCH  23  29
ATOM     29  O   UNL     1      45.292  25.448  15.868  0.00  0.00    +0.000 OA
ATOM     30  H   UNL     1      45.593  24.861  15.151  0.00  0.00    +0.000 HD
ENDBRANCH  23  29
BRANCH  24  31
ATOM     31  O   UNL     1      47.043  29.773  14.403  0.00  0.00    +0.000 OA
ATOM     32  H   UNL     1      46.877  30.480  13.758  0.00  0.00    +0.000 HD
ENDBRANCH  24  31
BRANCH  25  33
ATOM     33  C   UNL     1      43.084  25.721  13.957  0.00  0.00    +0.000 C 
BRANCH  33  34
ATOM     34  O   UNL     1      43.412  24.354  13.702  0.00  0.00    +0.000 OA
ATOM     35  H   UNL     1      44.323  24.236  14.029  0.00  0.00    +0.000 HD
ENDBRANCH  33  34
ENDBRANCH  25  33
ENDBRANCH  20  26
ENDBRANCH   3  20
TORSDOF 9
ENDMDL
