REMARK  Name = 
REMARK  17 active torsions:
REMARK  status: ('A' for Active; 'I' for Inactive)
REMARK    1  A    between atoms: C_1  and  N_2
REMARK    2  A    between atoms: C_4  and  O_9
REMARK    3  A    between atoms: C_7  and  C_13
REMARK    4  A    between atoms: C_8  and  O_14
REMARK    5  A    between atoms: C_13  and  O_16
REMARK    6  A    between atoms: O_16  and  P_18
REMARK    7  A    between atoms: P_18  and  O_19
REMARK    8  A    between atoms: P_18  and  O_20
REMARK    9  A    between atoms: O_19  and  P_22
REMARK   10  A    between atoms: P_22  and  O_23
REMARK   11  A    between atoms: P_22  and  O_24
REMARK   12  A    between atoms: O_23  and  C_26
REMARK   13  A    between atoms: C_28  and  O_31
REMARK   14  A    between atoms: C_29  and  C_33
REMARK   15  A    between atoms: C_30  and  O_34
REMARK   16  A    between atoms: C_32  and  O_35
REMARK   17  A    between atoms: C_33  and  O_36
REMARK                            x       y       z     vdW  Elec       q    Type
REMARK                         _______ _______ _______ _____ _____    ______ ____
ROOT
ATOM      1  P   UNL     1       2.555  -2.232  -3.870  0.00  0.00    +0.483 P 
ATOM      2  O   UNL     1       3.245  -2.331  -5.252  0.00  0.00    -0.227 OA
ENDROOT
BRANCH   1   3
ATOM      3  O   UNL     1       1.071  -1.902  -4.484  0.00  0.00    -0.302 OA
ATOM      4  H   UNL     1       0.988  -0.972  -4.770  0.00  0.00    +0.222 HD
ENDBRANCH   1   3
BRANCH   1   5
ATOM      5  O   UNL     1       2.409  -3.956  -3.820  0.00  0.00    -0.186 OA
BRANCH   5   6
ATOM      6  P   UNL     1       1.004  -4.389  -2.909  0.00  0.00    +0.486 P 
ATOM      7  O   UNL     1      -0.253  -4.778  -2.093  0.00  0.00    -0.227 OA
BRANCH   6   8
ATOM      8  O   UNL     1       1.800  -5.792  -2.572  0.00  0.00    -0.302 OA
ATOM      9  H   UNL     1       2.532  -5.700  -1.925  0.00  0.00    +0.222 HD
ENDBRANCH   6   8
BRANCH   6  10
ATOM     10  O   UNL     1       0.445  -4.961  -4.368  0.00  0.00    -0.254 OA
BRANCH  10  11
ATOM     11  C   UNL     1      -0.691  -5.813  -4.382  0.00  0.00    +0.294 C 
ATOM     12  O   UNL     1      -1.875  -5.044  -4.171  0.00  0.00    -0.331 OA
ATOM     13  C   UNL     1      -0.822  -6.514  -5.744  0.00  0.00    +0.202 C 
ATOM     14  C   UNL     1      -1.926  -3.914  -5.067  0.00  0.00    +0.260 C 
ATOM     15  C   UNL     1      -0.978  -5.446  -6.836  0.00  0.00    +0.179 C 
ATOM     16  C   UNL     1      -2.086  -4.415  -6.501  0.00  0.00    +0.185 C 
BRANCH  16  17
ATOM     17  O   UNL     1      -2.001  -3.370  -7.480  0.00  0.00    -0.386 OA
ATOM     18  H   UNL     1      -1.078  -3.062  -7.534  0.00  0.00    +0.210 HD
ENDBRANCH  16  17
BRANCH  15  19
ATOM     19  O   UNL     1      -1.269  -6.057  -8.100  0.00  0.00    -0.386 OA
ATOM     20  H   UNL     1      -1.577  -5.345  -8.693  0.00  0.00    +0.210 HD
ENDBRANCH  15  19
BRANCH  14  21
ATOM     21  C   UNL     1      -3.030  -3.027  -4.503  0.00  0.00    +0.337 C 
ATOM     22  O   UNL     1      -3.470  -2.017  -5.027  0.00  0.00    -0.248 OA
BRANCH  21  23
ATOM     23  O   UNL     1      -3.394  -3.409  -3.244  0.00  0.00    -0.479 OA
ATOM     24  H   UNL     1      -2.871  -4.211  -2.996  0.00  0.00    +0.295 HD
ENDBRANCH  21  23
ENDBRANCH  14  21
BRANCH  13  25
ATOM     25  O   UNL     1       0.303  -7.362  -5.997  0.00  0.00    -0.384 OA
ATOM     26  H   UNL     1       1.102  -6.811  -5.918  0.00  0.00    +0.210 HD
ENDBRANCH  13  25
ENDBRANCH  10  11
ENDBRANCH   6  10
ENDBRANCH   5   6
ENDBRANCH   1   5
BRANCH   1  27
ATOM     27  O   UNL     1       1.784  -2.123  -2.325  0.00  0.00    -0.284 OA
BRANCH  27  28
ATOM     28  C   UNL     1       2.612  -2.573  -1.223  0.00  0.00    +0.206 C 
BRANCH  28  32
ATOM     29  C   UNL     1       5.782  -3.650  -0.454  0.00  0.00    +0.255 C 
ATOM     30  O   UNL     1       4.628  -2.929   0.044  0.00  0.00    -0.346 OA
ATOM     31  C   UNL     1       5.806  -3.492  -1.974  0.00  0.00    +0.195 C 
ATOM     32  C   UNL     1       4.065  -2.096  -1.019  0.00  0.00    +0.178 C 
ATOM     33  C   UNL     1       5.099  -2.161  -2.146  0.00  0.00    +0.178 C 
BRANCH  29  34
ATOM     34  N   UNL     1       5.779  -5.045   0.015  0.00  0.00    -0.271 N 
ATOM     35  C   UNL     1       4.774  -5.911  -0.378  0.00  0.00    +0.331 A 
ATOM     36  C   UNL     1       6.856  -5.504   0.757  0.00  0.00    +0.098 A 
ATOM     37  N   UNL     1       4.892  -7.214   0.035  0.00  0.00    -0.275 N 
ATOM     38  O   UNL     1       3.808  -5.576  -1.073  0.00  0.00    -0.246 OA
ATOM     39  C   UNL     1       6.974  -6.777   1.135  0.00  0.00    +0.088 A 
ATOM     40  C   UNL     1       5.929  -7.737   0.742  0.00  0.00    +0.254 A 
ATOM     41  O   UNL     1       6.008  -8.922   1.051  0.00  0.00    -0.268 OA
ATOM     42  H   UNL     1       4.180  -7.866  -0.266  0.00  0.00    +0.173 HD
ENDBRANCH  29  34
BRANCH  33  43
ATOM     43  O   UNL     1       6.061  -1.099  -2.026  0.00  0.00    -0.386 OA
ATOM     44  H   UNL     1       6.161  -0.849  -1.088  0.00  0.00    +0.210 HD
ENDBRANCH  33  43
BRANCH  31  45
ATOM     45  O   UNL     1       7.129  -3.457  -2.504  0.00  0.00    -0.385 OA
ATOM     46  H   UNL     1       7.313  -2.526  -2.749  0.00  0.00    +0.210 HD
ENDBRANCH  31  45
ENDBRANCH  28  32
ENDBRANCH  27  28
ENDBRANCH   1  27
TORSDOF 17
