REMARK  Name = 
REMARK  13 active torsions:
REMARK  status: ('A' for Active; 'I' for Inactive)
REMARK    1  A    between atoms: N_1  and  C_3
REMARK    2  A    between atoms: C_12  and  C_16
REMARK    3  A    between atoms: C_13  and  O_17
REMARK    4  A    between atoms: C_16  and  O_18
REMARK    5  A    between atoms: O_18  and  P_19
REMARK    6  A    between atoms: P_19  and  O_20
REMARK    7  A    between atoms: P_19  and  O_21
REMARK    8  A    between atoms: O_20  and  P_23
REMARK    9  A    between atoms: P_23  and  O_24
REMARK   10  A    between atoms: P_23  and  O_25
REMARK   11  A    between atoms: O_24  and  P_27
REMARK   12  A    between atoms: P_27  and  O_28
REMARK   13  A    between atoms: P_27  and  O_29
REMARK                            x       y       z     vdW  Elec       q    Type
REMARK                         _______ _______ _______ _____ _____    ______ ____
ROOT
ATOM      1  C   UNL     1       2.037   2.493  -0.056  0.00  0.00    +0.225 C 
ATOM      2  O   UNL     1       1.671   3.255   1.130  0.00  0.00    -0.348 OA
ATOM      3  C   UNL     1       1.561   3.291  -1.261  0.00  0.00    +0.088 C 
ATOM      4  C   UNL     1       1.147   4.537   0.714  0.00  0.00    +0.175 C 
ATOM      5  C   UNL     1       1.583   4.708  -0.733  0.00  0.00    +0.150 C 
ENDROOT
BRANCH   1   6
ATOM      6  N   UNL     1       1.490   1.156   0.043  0.00  0.00    -0.288 N 
ATOM      7  C   UNL     1       2.024   0.028  -0.529  0.00  0.00    +0.167 A 
ATOM      8  C   UNL     1       0.389   0.767   0.757  0.00  0.00    +0.203 A 
ATOM      9  C   UNL     1       1.227  -1.007  -0.078  0.00  0.00    +0.147 A 
ATOM     10  N   UNL     1       3.097  -0.061  -1.333  0.00  0.00    -0.216 NA
ATOM     11  N   UNL     1       0.193  -0.532   0.705  0.00  0.00    -0.231 NA
ATOM     12  C   UNL     1       1.582  -2.305  -0.479  0.00  0.00    +0.147 A 
ATOM     13  C   UNL     1       3.325  -1.350  -1.680  0.00  0.00    +0.225 A 
ATOM     14  N   UNL     1       2.641  -2.454  -1.309  0.00  0.00    -0.219 NA
ATOM     15  N   UNL     1       0.889  -3.440  -0.083  0.00  0.00    -0.341 N 
ATOM     16  H   UNL     1      -0.050  -3.246   0.247  0.00  0.00    +0.144 HD
ATOM     17  H   UNL     1       1.020  -4.220  -0.711  0.00  0.00    +0.144 HD
ENDBRANCH   1   6
BRANCH   5  18
ATOM     18  O   UNL     1       2.917   5.217  -0.797  0.00  0.00    -0.389 OA
ATOM     19  H   UNL     1       3.440   4.886  -0.044  0.00  0.00    +0.210 HD
ENDBRANCH   5  18
BRANCH   4  20
ATOM     20  C   UNL     1      -0.381   4.559   0.897  0.00  0.00    +0.206 C 
BRANCH  20  21
ATOM     21  O   UNL     1      -0.748   4.283   2.249  0.00  0.00    -0.284 OA
BRANCH  21  22
ATOM     22  P   UNL     1      -0.121   5.430   3.382  0.00  0.00    +0.483 P 
ATOM     23  O   UNL     1       0.441   6.456   4.397  0.00  0.00    -0.227 OA
BRANCH  22  24
ATOM     24  O   UNL     1      -0.144   4.191   4.455  0.00  0.00    -0.302 OA
ATOM     25  H   UNL     1       0.630   3.618   4.391  0.00  0.00    +0.222 HD
ENDBRANCH  22  24
BRANCH  22  26
ATOM     26  O   UNL     1      -1.656   5.880   3.589  0.00  0.00    -0.186 OA
BRANCH  26  27
ATOM     27  P   UNL     1      -2.133   7.385   3.650  0.00  0.00    +0.492 P 
ATOM     28  O   UNL     1      -1.384   8.360   2.809  0.00  0.00    -0.226 OA
BRANCH  27  29
ATOM     29  O   UNL     1      -2.175   7.685   5.223  0.00  0.00    -0.302 OA
ATOM     30  H   UNL     1      -1.278   7.607   5.610  0.00  0.00    +0.222 HD
ENDBRANCH  27  29
BRANCH  27  31
ATOM     31  O   UNL     1      -3.672   7.228   3.248  0.00  0.00    -0.186 OA
BRANCH  31  32
ATOM     32  P   UNL     1      -3.921   6.878   1.572  0.00  0.00    +0.481 P 
ATOM     33  O   UNL     1      -4.145   6.564   0.072  0.00  0.00    -0.227 OA
BRANCH  32  34
ATOM     34  O   UNL     1      -3.774   5.305   1.983  0.00  0.00    -0.302 OA
ATOM     35  H   UNL     1      -4.491   5.050   2.590  0.00  0.00    +0.222 HD
ENDBRANCH  32  34
BRANCH  32  36
ATOM     36  O   UNL     1      -5.533   6.920   1.845  0.00  0.00    -0.302 OA
ATOM     37  H   UNL     1      -5.938   6.592   1.014  0.00  0.00    +0.222 HD
ENDBRANCH  32  36
ENDBRANCH  31  32
ENDBRANCH  27  31
ENDBRANCH  26  27
ENDBRANCH  22  26
ENDBRANCH  21  22
ENDBRANCH  20  21
ENDBRANCH   4  20
TORSDOF 13
