REMARK  Name = 
REMARK  5 active torsions:
REMARK  status: ('A' for Active; 'I' for Inactive)
REMARK    1  A    between atoms: C_1  and  C_2
REMARK    2  A    between atoms: C_1  and  C_3
REMARK    3  A    between atoms: C_2  and  C_5
REMARK    4  A    between atoms: C_2  and  C_6
REMARK    5  A    between atoms: C_3  and  O_7
REMARK                            x       y       z     vdW  Elec       q    Type
REMARK                         _______ _______ _______ _____ _____    ______ ____
ROOT
ATOM      1  C   UNL     1       0.989  -0.089  -0.123  0.00  0.00    +0.242 C 
ATOM      2  O   UNL     1       2.102  -0.583  -0.293  0.00  0.00    -0.285 OA
ENDROOT
BRANCH   1   3
ATOM      3  C   UNL     1       0.242  -0.019   1.192  0.00  0.00    +0.061 C 
ATOM      4  C   UNL     1      -0.639  -1.252   1.352  0.00  0.00    +0.016 C 
ATOM      5  C   UNL     1       1.228   0.101   2.350  0.00  0.00    +0.016 C 
ENDBRANCH   1   3
BRANCH   1   6
ATOM      6  C   UNL     1       0.294   0.481  -1.358  0.00  0.00    +0.373 C 
ATOM      7  O   UNL     1      -0.819   0.966  -1.343  0.00  0.00    -0.242 OA
BRANCH   6   8
ATOM      8  O   UNL     1       1.095   0.372  -2.436  0.00  0.00    -0.475 OA
ATOM      9  H   UNL     1       1.938  -0.064  -2.166  0.00  0.00    +0.295 HD
ENDBRANCH   6   8
ENDBRANCH   1   6
TORSDOF 3
