REMARK  Name = 
REMARK  8 active torsions:
REMARK  status: ('A' for Active; 'I' for Inactive)
REMARK    1  A    between atoms: C_1  and  C_4
REMARK    2  A    between atoms: C_2  and  C_6
REMARK    3  A    between atoms: C_4  and  O_8
REMARK    4  A    between atoms: C_5  and  O_10
REMARK    5  A    between atoms: O_8  and  P_12
REMARK    6  A    between atoms: C_9  and  C_13
REMARK    7  A    between atoms: P_12  and  O_14
REMARK    8  A    between atoms: P_12  and  O_15
REMARK                            x       y       z     vdW  Elec       q    Type
REMARK                         _______ _______ _______ _____ _____    ______ ____
ROOT
ATOM      1  C   UNL     1       1.566   0.983  -0.124  0.00  0.00    +0.010 A 
ATOM      2  C   UNL     1       0.237   1.458  -0.109  0.00  0.00    +0.064 A 
ATOM      3  C   UNL     1       1.712  -0.396  -0.101  0.00  0.00    +0.117 A 
ATOM      4  C   UNL     1      -0.841   0.541  -0.069  0.00  0.00    +0.148 A 
ATOM      5  N   UNL     1       0.699  -1.294  -0.071  0.00  0.00    -0.256 NA
ATOM      6  C   UNL     1      -0.569  -0.818  -0.057  0.00  0.00    +0.080 A 
ATOM      7  C   UNL     1      -1.645  -1.861  -0.008  0.00  0.00    +0.069 C 
ENDROOT
BRANCH   2   8
ATOM      8  C   UNL     1      -0.071   2.909  -0.117  0.00  0.00    +0.262 C 
ATOM      9  O   UNL     1      -1.234   3.314  -0.094  0.00  0.00    -0.296 OA
ENDBRANCH   2   8
BRANCH   4  10
ATOM     10  O   UNL     1      -2.152   0.946  -0.045  0.00  0.00    -0.504 OA
ATOM     11  H   UNL     1      -2.190   1.926  -0.045  0.00  0.00    +0.292 HD
ENDBRANCH   4  10
BRANCH   1  12
ATOM     12  C   UNL     1       2.807   1.846  -0.082  0.00  0.00    +0.210 C 
BRANCH  12  13
ATOM     13  O   UNL     1       3.887   1.171  -0.720  0.00  0.00    -0.282 OA
BRANCH  13  14
ATOM     14  P   UNL     1       5.406   1.999  -0.704  0.00  0.00    +0.473 P 
ATOM     15  O   UNL     1       6.766   2.740  -0.690  0.00  0.00    -0.228 OA
BRANCH  14  16
ATOM     16  O   UNL     1       5.684   1.155   0.667  0.00  0.00    -0.303 OA
ATOM     17  H   UNL     1       5.843   0.230   0.400  0.00  0.00    +0.222 HD
ENDBRANCH  14  16
BRANCH  14  18
ATOM     18  O   UNL     1       5.943   0.820  -1.701  0.00  0.00    -0.303 OA
ATOM     19  H   UNL     1       6.514   1.227  -2.381  0.00  0.00    +0.222 HD
ENDBRANCH  14  18
ENDBRANCH  13  14
ENDBRANCH  12  13
ENDBRANCH   1  12
TORSDOF 7
