REMARK  Name = 
REMARK  6 active torsions:
REMARK  status: ('A' for Active; 'I' for Inactive)
REMARK    1  A    between atoms: O_1  and  C_2
REMARK    2  A    between atoms: C_2  and  CA_3
REMARK    3  A    between atoms: CA_3  and  CB_4
REMARK    4  A    between atoms: CA_3  and  N_8
REMARK    5  A    between atoms: CB_4  and  CG_5
REMARK    6  A    between atoms: CG_5  and  OD1_6
REMARK                            x       y       z     vdW  Elec       q    Type
REMARK                         _______ _______ _______ _____ _____    ______ ____
ROOT
ATOM      1  CA  ASP A   1       3.223   0.684  -1.270  0.00  0.00    +0.171 C 
ENDROOT
BRANCH   1   2
ATOM      2  N   ASP A   1       2.219   1.435  -2.055  0.00  0.00    -0.318 NA
ATOM      3  H1  ASP A   1       1.508   0.790  -2.412  0.00  0.00    +0.119 HD
ATOM      4  H2  ASP A   1       2.618   1.887  -2.875  0.00  0.00    +0.119 HD
ENDBRANCH   1   2
BRANCH   1   5
ATOM      5  C   ASP A   1       3.935  -0.316  -2.192  0.00  0.00    +0.322 C 
ATOM      6  OXT ASP A   1       3.888  -1.533  -2.047  0.00  0.00    -0.249 OA
BRANCH   5   7
ATOM      7  O   ASP A   1       4.615   0.272  -3.199  0.00  0.00    -0.480 OA
ATOM      8  H   ASP A   1       4.611   1.248  -3.156  0.00  0.00    +0.295 HD
ENDBRANCH   5   7
ENDBRANCH   1   5
BRANCH   1   9
ATOM      9  CB  ASP A   1       2.520  -0.042  -0.120  0.00  0.00    +0.150 C 
BRANCH   9  10
ATOM     10  CG  ASP A   1       3.491  -0.618   0.882  0.00  0.00    +0.307 C 
ATOM     11  OD2 ASP A   1       3.697  -0.114   1.976  0.00  0.00    -0.251 OA
BRANCH  10  12
ATOM     12  OD1 ASP A   1       4.113  -1.747   0.487  0.00  0.00    -0.481 OA
ATOM     13  HD1 ASP A   1       3.918  -2.045  -0.435  0.00  0.00    +0.295 HD
ENDBRANCH  10  12
ENDBRANCH   9  10
ENDBRANCH   1   9
TORSDOF 6
