REMARK  Name = 
REMARK  14 active torsions:
REMARK  status: ('A' for Active; 'I' for Inactive)
REMARK    1  A    between atoms: C_1  and  O_4
REMARK    2  A    between atoms: C_3  and  O_7
REMARK    3  A    between atoms: O_4  and  P_8
REMARK    4  A    between atoms: C_5  and  C_9
REMARK    5  A    between atoms: C_6  and  O_10
REMARK    6  A    between atoms: P_8  and  O_11
REMARK    7  A    between atoms: P_8  and  O_12
REMARK    8  A    between atoms: C_9  and  O_14
REMARK    9  A    between atoms: O_11  and  P_15
REMARK   10  A    between atoms: O_14  and  P_16
REMARK   11  A    between atoms: P_15  and  O_17
REMARK   12  A    between atoms: P_15  and  O_18
REMARK   13  A    between atoms: P_16  and  O_20
REMARK   14  A    between atoms: P_16  and  O_21
REMARK                            x       y       z     vdW  Elec       q    Type
REMARK                         _______ _______ _______ _____ _____    ______ ____
ROOT
ATOM      1  C   UNL     1       0.741   1.560   0.242  0.00  0.00    +0.293 C 
ATOM      2  O   UNL     1       1.799   0.606   0.193  0.00  0.00    -0.340 OA
ATOM      3  C   UNL     1      -0.195   1.218  -0.917  0.00  0.00    +0.202 C 
ATOM      4  C   UNL     1       1.334  -0.563  -0.523  0.00  0.00    +0.179 C 
ATOM      5  C   UNL     1      -0.098  -0.300  -0.991  0.00  0.00    +0.179 C 
ENDROOT
BRANCH   3   6
ATOM      6  O   UNL     1      -1.522   1.701  -0.736  0.00  0.00    -0.384 OA
ATOM      7  H   UNL     1      -1.809   1.328   0.129  0.00  0.00    +0.210 HD
ENDBRANCH   3   6
BRANCH   5   8
ATOM      8  O   UNL     1      -1.018  -0.930  -0.097  0.00  0.00    -0.386 OA
ATOM      9  H   UNL     1      -0.868  -1.893  -0.143  0.00  0.00    +0.210 HD
ENDBRANCH   5   8
BRANCH   1  10
ATOM     10  O   UNL     1       0.038   1.453   1.448  0.00  0.00    -0.254 OA
BRANCH  10  11
ATOM     11  P   UNL     1       0.881   1.559   2.798  0.00  0.00    +0.486 P 
ATOM     12  O   UNL     1       1.955   2.595   2.830  0.00  0.00    -0.227 OA
BRANCH  11  13
ATOM     13  O   UNL     1       1.433   0.068   2.984  0.00  0.00    -0.302 OA
ATOM     14  H   UNL     1       2.111  -0.131   2.299  0.00  0.00    +0.222 HD
ENDBRANCH  11  13
BRANCH  11  15
ATOM     15  O   UNL     1      -0.270   1.719   3.869  0.00  0.00    -0.186 OA
BRANCH  15  16
ATOM     16  P   UNL     1      -0.217   1.431   5.411  0.00  0.00    +0.481 P 
ATOM     17  O   UNL     1      -0.238   0.013   5.866  0.00  0.00    -0.227 OA
BRANCH  16  18
ATOM     18  O   UNL     1       1.026   2.264   5.964  0.00  0.00    -0.302 OA
ATOM     19  H   UNL     1       1.866   1.776   5.872  0.00  0.00    +0.222 HD
ENDBRANCH  16  18
BRANCH  16  20
ATOM     20  O   UNL     1      -1.413   2.332   5.983  0.00  0.00    -0.302 OA
ATOM     21  H   UNL     1      -1.197   3.277   5.885  0.00  0.00    +0.222 HD
ENDBRANCH  16  20
ENDBRANCH  15  16
ENDBRANCH  11  15
ENDBRANCH  10  11
ENDBRANCH   1  10
BRANCH   4  22
ATOM     22  C   UNL     1       2.256  -0.812  -1.700  0.00  0.00    +0.206 C 
BRANCH  22  23
ATOM     23  O   UNL     1       3.585  -1.049  -1.240  0.00  0.00    -0.284 OA
BRANCH  23  24
ATOM     24  P   UNL     1       4.553  -1.429  -2.623  0.00  0.00    +0.472 P 
ATOM     25  O   UNL     1       5.420  -1.768  -3.860  0.00  0.00    -0.228 OA
BRANCH  24  26
ATOM     26  O   UNL     1       5.800  -0.700  -1.863  0.00  0.00    -0.303 OA
ATOM     27  H   UNL     1       6.546  -0.717  -2.497  0.00  0.00    +0.222 HD
ENDBRANCH  24  26
BRANCH  24  28
ATOM     28  O   UNL     1       4.761  -2.882  -1.906  0.00  0.00    -0.303 OA
ATOM     29  H   UNL     1       5.309  -2.743  -1.113  0.00  0.00    +0.222 HD
ENDBRANCH  24  28
ENDBRANCH  23  24
ENDBRANCH  22  23
ENDBRANCH   4  22
TORSDOF 14
