REMARK  Name = 
REMARK  7 active torsions:
REMARK  status: ('A' for Active; 'I' for Inactive)
REMARK    1  A    between atoms: C_2  and  C_3
REMARK    2  A    between atoms: C_3  and  C_4
REMARK    3  A    between atoms: C_3  and  O_6
REMARK    4  A    between atoms: C_4  and  O_5
REMARK    5  A    between atoms: O_5  and  P_7
REMARK    6  A    between atoms: P_7  and  O_8
REMARK    7  A    between atoms: P_7  and  O_10
REMARK                            x       y       z     vdW  Elec       q    Type
REMARK                         _______ _______ _______ _____ _____    ______ ____
ROOT
ATOM      1  O   UNL     1       1.273  -2.094  -1.527  0.00  0.00    -0.284 OA
ENDROOT
BRANCH   1   2
ATOM      2  P   UNL     1       0.844  -2.765  -3.063  0.00  0.00    +0.472 P 
ATOM      3  O   UNL     1      -0.639  -2.763  -2.702  0.00  0.00    -0.228 OA
BRANCH   2   4
ATOM      4  O   UNL     1       1.349  -4.235  -2.569  0.00  0.00    -0.303 OA
ATOM      5  H   UNL     1       0.617  -4.629  -2.055  0.00  0.00    +0.222 HD
ENDBRANCH   2   4
BRANCH   2   6
ATOM      6  O   UNL     1       0.414  -3.437  -4.598  0.00  0.00    -0.303 OA
ATOM      7  H   UNL     1      -0.318  -4.054  -4.412  0.00  0.00    +0.222 HD
ENDBRANCH   2   6
ENDBRANCH   1   2
BRANCH   1   8
ATOM      8  C   UNL     1       2.662  -1.769  -1.459  0.00  0.00    +0.211 C 
BRANCH   8   9
ATOM      9  C   UNL     1       3.004  -1.168  -0.097  0.00  0.00    +0.203 C 
BRANCH   9  11
ATOM     10  O   UNL     1       5.226  -0.809  -1.015  0.00  0.00    -0.298 OA
ATOM     11  C   UNL     1       4.456  -0.727  -0.062  0.00  0.00    +0.256 C 
ENDBRANCH   9  11
BRANCH   9  12
ATOM     12  O   UNL     1       2.795  -2.100   0.964  0.00  0.00    -0.382 OA
ATOM     13  H   UNL     1       3.070  -2.981   0.653  0.00  0.00    +0.210 HD
ENDBRANCH   9  12
ENDBRANCH   8   9
ENDBRANCH   1   8
TORSDOF 7
