REMARK  Name = 
REMARK  11 active torsions:
REMARK  status: ('A' for Active; 'I' for Inactive)
REMARK    1  A    between atoms: N_1  and  C_3
REMARK    2  A    between atoms: C_8  and  O_14
REMARK    3  A    between atoms: C_12  and  C_18
REMARK    4  A    between atoms: C_13  and  O_19
REMARK    5  A    between atoms: C_18  and  O_20
REMARK    6  A    between atoms: O_20  and  P_21
REMARK    7  A    between atoms: P_21  and  O_22
REMARK    8  A    between atoms: P_21  and  O_23
REMARK    9  A    between atoms: O_22  and  P_25
REMARK   10  A    between atoms: P_25  and  O_26
REMARK   11  A    between atoms: P_25  and  O_27
REMARK                            x       y       z     vdW  Elec       q    Type
REMARK                         _______ _______ _______ _____ _____    ______ ____
ROOT
ATOM      1  C   UNL     1       2.003  -2.484  -0.004  0.00  0.00    +0.253 C 
ATOM      2  O   UNL     1       2.769  -2.785   1.196  0.00  0.00    -0.346 OA
ATOM      3  C   UNL     1       2.915  -2.779  -1.198  0.00  0.00    +0.195 C 
ATOM      4  C   UNL     1       3.942  -3.545   0.814  0.00  0.00    +0.178 C 
ATOM      5  C   UNL     1       3.781  -3.904  -0.657  0.00  0.00    +0.178 C 
ENDROOT
BRANCH   1   6
ATOM      6  N   UNL     1       1.531  -1.114   0.045  0.00  0.00    -0.285 N 
ATOM      7  C   UNL     1       0.369  -0.641  -0.499  0.00  0.00    +0.171 A 
ATOM      8  C   UNL     1       2.177  -0.039   0.606  0.00  0.00    +0.203 A 
ATOM      9  C   UNL     1       0.378   0.711  -0.243  0.00  0.00    +0.172 A 
ATOM     10  N   UNL     1      -0.573  -1.357  -1.165  0.00  0.00    -0.196 NA
ATOM     11  N   UNL     1       1.504   1.083   0.454  0.00  0.00    -0.229 NA
ATOM     12  C   UNL     1      -0.732   1.505  -0.728  0.00  0.00    +0.280 A 
ATOM     13  C   UNL     1      -1.555  -0.624  -1.622  0.00  0.00    +0.195 A 
ATOM     14  N   UNL     1      -1.656   0.738  -1.421  0.00  0.00    -0.293 N 
ATOM     15  O   UNL     1      -0.879   2.712  -0.566  0.00  0.00    -0.265 OA
ATOM     16  N   UNL     1      -2.558  -1.196  -2.333  0.00  0.00    -0.329 N 
ATOM     17  H   UNL     1      -2.426   1.254  -1.813  0.00  0.00    +0.172 HD
ATOM     18  H   UNL     1      -2.567  -2.209  -2.284  0.00  0.00    +0.145 HD
ATOM     19  H   UNL     1      -3.475  -0.773  -2.297  0.00  0.00    +0.145 HD
ENDBRANCH   1   6
BRANCH   3  20
ATOM     20  O   UNL     1       2.219  -3.201  -2.368  0.00  0.00    -0.385 OA
ATOM     21  H   UNL     1       2.114  -4.172  -2.293  0.00  0.00    +0.210 HD
ENDBRANCH   3  20
BRANCH   5  22
ATOM     22  O   UNL     1       3.061  -5.141  -0.819  0.00  0.00    -0.386 OA
ATOM     23  H   UNL     1       2.517  -5.311  -0.028  0.00  0.00    +0.210 HD
ENDBRANCH   5  22
BRANCH   4  24
ATOM     24  C   UNL     1       5.207  -2.724   1.090  0.00  0.00    +0.206 C 
BRANCH  24  25
ATOM     25  O   UNL     1       5.255  -2.268   2.433  0.00  0.00    -0.284 OA
BRANCH  25  26
ATOM     26  P   UNL     1       5.286  -3.320   3.635  0.00  0.00    +0.483 P 
ATOM     27  O   UNL     1       5.540  -4.747   3.276  0.00  0.00    -0.227 OA
BRANCH  26  28
ATOM     28  O   UNL     1       3.846  -3.055   4.292  0.00  0.00    -0.302 OA
ATOM     29  H   UNL     1       3.124  -3.139   3.641  0.00  0.00    +0.222 HD
ENDBRANCH  26  28
BRANCH  26  30
ATOM     30  O   UNL     1       6.290  -2.684   4.705  0.00  0.00    -0.186 OA
BRANCH  30  31
ATOM     31  P   UNL     1       7.977  -2.869   4.370  0.00  0.00    +0.481 P 
ATOM     32  O   UNL     1       9.487  -3.035   4.070  0.00  0.00    -0.227 OA
BRANCH  31  33
ATOM     33  O   UNL     1       7.784  -1.564   3.401  0.00  0.00    -0.302 OA
ATOM     34  H   UNL     1       7.896  -0.775   3.966  0.00  0.00    +0.222 HD
ENDBRANCH  31  33
BRANCH  31  35
ATOM     35  O   UNL     1       8.194  -1.952   5.715  0.00  0.00    -0.302 OA
ATOM     36  H   UNL     1       8.049  -2.464   6.530  0.00  0.00    +0.222 HD
ENDBRANCH  31  35
ENDBRANCH  30  31
ENDBRANCH  26  30
ENDBRANCH  25  26
ENDBRANCH  24  25
ENDBRANCH   4  24
TORSDOF 11
