REMARK  Name = 
REMARK  27 active torsions:
REMARK  status: ('A' for Active; 'I' for Inactive)
REMARK    1  A    between atoms: O_1  and  C_2
REMARK    2  A    between atoms: C_2  and  CA_3
REMARK    3  A    between atoms: CA_3  and  CB_4
REMARK    4  A    between atoms: CA_3  and  N_16
REMARK    5  A    between atoms: CB_4  and  CG_5
REMARK    6  A    between atoms: CG_5  and  CD_6
REMARK    7  A    between atoms: N_7  and  CA_8
REMARK    8  A    between atoms: CA_8  and  C_9
REMARK    9  A    between atoms: CA_8  and  CB_17
REMARK   10  A    between atoms: N_10  and  CA_11
REMARK   11  A    between atoms: CA_11  and  C_12
REMARK   12  A    between atoms: C_12  and  O_13
REMARK   13  A    between atoms: CB_17  and  SG_20
REMARK   14  A    between atoms: SG_20  and  SG_21
REMARK   15  A    between atoms: SG_21  and  CB_22
REMARK   16  A    between atoms: CB_22  and  CA_23
REMARK   17  A    between atoms: CA_23  and  C_24
REMARK   18  A    between atoms: CA_23  and  N_25
REMARK   19  A    between atoms: N_26  and  CA_27
REMARK   20  A    between atoms: CA_27  and  C_28
REMARK   21  A    between atoms: C_28  and  O_30
REMARK   22  A    between atoms: CD_32  and  CG_33
REMARK   23  A    between atoms: CG_33  and  CB_35
REMARK   24  A    between atoms: CB_35  and  CA_36
REMARK   25  A    between atoms: CA_36  and  C_37
REMARK   26  A    between atoms: CA_36  and  N_38
REMARK   27  A    between atoms: C_37  and  O_39
REMARK                            x       y       z     vdW  Elec       q    Type
REMARK                         _______ _______ _______ _____ _____    ______ ____
ROOT
ATOM      1  SG  GLN A   1      -1.321   1.705   1.770  0.00  0.00    -0.091 S 
ENDROOT
BRANCH   1   2
ATOM      2  SG  GLN A   1      -2.510   1.490   0.118  0.00  0.00    -0.091 S 
BRANCH   2   3
ATOM      3  CB  GLN A   1      -4.041   0.532   0.538  0.00  0.00    +0.112 C 
BRANCH   3   4
ATOM      4  CA  GLN A   1      -5.038   0.904   1.658  0.00  0.00    +0.169 C 
BRANCH   4   5
ATOM      5  N   GLN A   1      -6.113  -0.130   1.882  0.00  0.00    -0.303 N 
ATOM      6  CD  GLN A   1      -6.586  -1.019   0.943  0.00  0.00    +0.214 C 
ATOM      7  OE1 GLN A   1      -6.161  -1.076  -0.198  0.00  0.00    -0.276 OA
ATOM      8  H   GLN A   1      -6.538  -0.144   2.804  0.00  0.00    +0.149 HD
BRANCH   6   9
ATOM      9  CG  GLN A   1      -7.671  -1.992   1.416  0.00  0.00    +0.098 C 
BRANCH   9  10
ATOM     10  CB  GLN A   1      -9.122  -1.492   1.360  0.00  0.00    +0.039 C 
BRANCH  10  11
ATOM     11  CA  GLN A   1      -9.638  -1.116  -0.039  0.00  0.00    +0.161 C 
BRANCH  11  12
ATOM     12  N   GLN A   1      -8.879   0.040  -0.548  0.00  0.00    -0.318 NA
ATOM     13  H1  GLN A   1      -8.964   0.856   0.041  0.00  0.00    +0.119 HD
ATOM     14  H2  GLN A   1      -9.006   0.195  -1.548  0.00  0.00    +0.119 HD
ENDBRANCH  11  12
BRANCH  11  15
ATOM     15  C   GLN A   1     -11.151  -0.800   0.034  0.00  0.00    +0.322 C 
ATOM     16  OXT GLN A   1     -12.000  -1.571   0.457  0.00  0.00    -0.249 OA
BRANCH  15  17
ATOM     17  O   GLN A   1     -11.467   0.444  -0.396  0.00  0.00    -0.480 OA
ATOM     18  H   GLN A   1     -10.676   0.896  -0.749  0.00  0.00    +0.295 HD
ENDBRANCH  15  17
ENDBRANCH  11  15
ENDBRANCH  10  11
ENDBRANCH   9  10
ENDBRANCH   6   9
ENDBRANCH   4   5
BRANCH   4  19
ATOM     19  C   GLN A   1      -5.713   2.295   1.499  0.00  0.00    +0.235 C 
ATOM     20  N   GLY A   2      -6.857   2.366   0.746  0.00  0.00    -0.303 N 
ATOM     21  O   GLN A   1      -5.220   3.333   1.942  0.00  0.00    -0.274 OA
ATOM     22  H   GLY A   2      -7.082   1.578   0.152  0.00  0.00    +0.149 HD
BRANCH  20  23
ATOM     23  CA  GLY A   2      -7.734   3.550   0.747  0.00  0.00    +0.224 C 
BRANCH  23  24
ATOM     24  C   GLY A   2      -7.275   4.759  -0.076  0.00  0.00    +0.322 C 
ATOM     25  OXT GLY A   2      -8.060   5.486  -0.670  0.00  0.00    -0.249 OA
BRANCH  24  26
ATOM     26  O   GLY A   2      -5.967   5.043   0.007  0.00  0.00    -0.480 OA
ATOM     27  H   GLY A   2      -5.498   4.485   0.667  0.00  0.00    +0.295 HD
ENDBRANCH  24  26
ENDBRANCH  23  24
ENDBRANCH  20  23
ENDBRANCH   4  19
ENDBRANCH   3   4
ENDBRANCH   2   3
ENDBRANCH   1   2
BRANCH   1  28
ATOM     28  CB  GLN A   1      -0.122   0.285   1.935  0.00  0.00    +0.112 C 
BRANCH  28  29
ATOM     29  CA  GLN A   1       0.635  -0.338   0.743  0.00  0.00    +0.169 C 
BRANCH  29  31
ATOM     30  CD  GLN A   1       2.329  -1.790   2.014  0.00  0.00    +0.214 C 
ATOM     31  N   GLN A   1       1.330  -1.622   1.082  0.00  0.00    -0.303 N 
ATOM     32  OE1 GLN A   1       2.834  -0.851   2.628  0.00  0.00    -0.276 OA
ATOM     33  H   GLN A   1       1.061  -2.428   0.531  0.00  0.00    +0.149 HD
BRANCH  30  34
ATOM     34  CG  GLN A   1       2.784  -3.225   2.250  0.00  0.00    +0.098 C 
BRANCH  34  35
ATOM     35  CB  GLN A   1       3.884  -3.755   1.321  0.00  0.00    +0.039 C 
BRANCH  35  36
ATOM     36  CA  GLN A   1       5.310  -3.183   1.475  0.00  0.00    +0.161 C 
BRANCH  36  37
ATOM     37  N   GLN A   1       5.811  -3.272   2.864  0.00  0.00    -0.318 NA
ATOM     38  H1  GLN A   1       5.327  -2.654   3.513  0.00  0.00    +0.119 HD
ATOM     39  H2  GLN A   1       6.820  -3.194   2.926  0.00  0.00    +0.119 HD
ENDBRANCH  36  37
BRANCH  36  40
ATOM     40  C   GLN A   1       5.429  -1.785   0.865  0.00  0.00    +0.322 C 
ATOM     41  OXT GLN A   1       4.967  -1.481  -0.225  0.00  0.00    -0.249 OA
BRANCH  40  42
ATOM     42  O   GLN A   1       6.115  -0.900   1.623  0.00  0.00    -0.480 OA
ATOM     43  H   GLN A   1       6.395  -1.304   2.464  0.00  0.00    +0.295 HD
ENDBRANCH  40  42
ENDBRANCH  36  40
ENDBRANCH  35  36
ENDBRANCH  34  35
ENDBRANCH  30  34
ENDBRANCH  29  31
BRANCH  29  44
ATOM     44  C   GLN A   1       1.612   0.621   0.032  0.00  0.00    +0.235 C 
ATOM     45  N   GLY A   2       2.637   1.147   0.776  0.00  0.00    -0.303 N 
ATOM     46  O   GLN A   1       1.451   0.963  -1.141  0.00  0.00    -0.274 OA
ATOM     47  H   GLY A   2       2.888   0.609   1.608  0.00  0.00    +0.149 HD
BRANCH  45  48
ATOM     48  CA  GLY A   2       3.749   1.890   0.178  0.00  0.00    +0.224 C 
BRANCH  48  49
ATOM     49  C   GLY A   2       3.441   3.284  -0.380  0.00  0.00    +0.322 C 
ATOM     50  OXT GLY A   2       4.255   4.202  -0.367  0.00  0.00    -0.249 OA
BRANCH  49  51
ATOM     51  O   GLY A   2       2.255   3.412  -1.013  0.00  0.00    -0.480 OA
ATOM     52  H   GLY A   2       1.808   2.541  -1.142  0.00  0.00    +0.295 HD
ENDBRANCH  49  51
ENDBRANCH  48  49
ENDBRANCH  45  48
ENDBRANCH  29  44
ENDBRANCH  28  29
ENDBRANCH   1  28
TORSDOF 27
