REMARK  Name = 
REMARK  2 active torsions:
REMARK  status: ('A' for Active; 'I' for Inactive)
REMARK    1  A    between atoms: C_1  and  C_2
REMARK    2  A    between atoms: C_1  and  O_3
REMARK                            x       y       z     vdW  Elec       q    Type
REMARK                         _______ _______ _______ _____ _____    ______ ____
ROOT
ATOM      1  C   UNL     1       1.136  -0.100   0.042  0.00  0.00    +0.369 C 
ATOM      2  O   UNL     1       2.350  -0.114   0.044  0.00  0.00    -0.242 OA
ENDROOT
BRANCH   1   3
ATOM      3  C   UNL     1       0.343   1.178  -0.140  0.00  0.00    +0.341 C 
ATOM      4  O   UNL     1      -0.880   1.121  -0.131  0.00  0.00    -0.289 OA
ENDBRANCH   1   3
BRANCH   1   5
ATOM      5  O   UNL     1       0.322  -1.159   0.193  0.00  0.00    -0.475 OA
ATOM      6  H   UNL     1      -0.616  -0.859   0.151  0.00  0.00    +0.295 HD
ENDBRANCH   1   5
TORSDOF 2
