REMARK  Name = 
REMARK  6 active torsions:
REMARK  status: ('A' for Active; 'I' for Inactive)
REMARK    1  A    between atoms: O_1  and  C_2
REMARK    2  A    between atoms: C_2  and  CA_3
REMARK    3  A    between atoms: CA_3  and  CB_4
REMARK    4  A    between atoms: CA_3  and  N_7
REMARK    5  A    between atoms: CB_4  and  CG2_5
REMARK    6  A    between atoms: CB_4  and  OG1_8
REMARK                            x       y       z     vdW  Elec       q    Type
REMARK                         _______ _______ _______ _____ _____    ______ ____
ROOT
ATOM      1  CA  THR A   1      24.966 -18.270   0.000  0.00  0.00    +0.224 C 
ENDROOT
BRANCH   1   2
ATOM      2  N   THR A   1      24.966 -19.670   0.000  0.00  0.00    -0.118 NA
ATOM      3  H1  THR A   1      24.082 -20.180   0.000  0.00  0.00    +0.000 HD
ATOM      4  H2  THR A   1      25.849 -20.180   0.000  0.00  0.00    +0.000 HD
ENDBRANCH   1   2
BRANCH   1   5
ATOM      5  C   THR A   1      23.753 -17.570   0.000  0.00  0.00    +0.384 C 
ATOM      6  OXT THR A   1      23.753 -16.171   0.000  0.00  0.00    -0.244 OA
BRANCH   5   7
ATOM      7  O   THR A   1      22.541 -18.270   0.000  0.00  0.00    -0.244 OA
ATOM      8  H   THR A   1      21.729 -17.802   0.000  0.00  0.00    +0.000 HD
ENDBRANCH   5   7
ENDBRANCH   1   5
BRANCH   1   9
ATOM      9  CB  THR A   1      26.178 -17.570   0.000  0.00  0.00    +0.181 C 
ATOM     10  CG2 THR A   1      27.391 -18.270   0.000  0.00  0.00    +0.038 C 
BRANCH   9  11
ATOM     11  OG1 THR A   1      26.178 -16.170   0.000  0.00  0.00    -0.221 OA
ATOM     12  HG1 THR A   1      27.018 -15.685   0.000  0.00  0.00    +0.000 HD
ENDBRANCH   9  11
ENDBRANCH   1   9
TORSDOF 5
