REMARK  Name = 
REMARK  11 active torsions:
REMARK  status: ('A' for Active; 'I' for Inactive)
REMARK    1  A    between atoms: C_1  and  N_18
REMARK    2  A    between atoms: C_3  and  O_6
REMARK    3  A    between atoms: C_4  and  C_7
REMARK    4  A    between atoms: C_5  and  O_8
REMARK    5  A    between atoms: C_7  and  O_9
REMARK    6  A    between atoms: O_9  and  P_10
REMARK    7  A    between atoms: P_10  and  O_11
REMARK    8  A    between atoms: P_10  and  O_12
REMARK    9  A    between atoms: O_11  and  P_14
REMARK   10  A    between atoms: P_14  and  O_15
REMARK   11  A    between atoms: P_14  and  O_16
REMARK                            x       y       z     vdW  Elec       q    Type
REMARK                         _______ _______ _______ _____ _____    ______ ____
ROOT
ATOM      1  C   UNL     1       0.430   1.300   0.404  0.00  0.00    +0.255 C 
ATOM      2  O   UNL     1       1.579   0.416   0.387  0.00  0.00    -0.346 OA
ATOM      3  C   UNL     1      -0.624   0.663  -0.514  0.00  0.00    +0.195 C 
ATOM      4  C   UNL     1       1.244  -0.806  -0.310  0.00  0.00    +0.178 C 
ATOM      5  C   UNL     1      -0.278  -0.816  -0.411  0.00  0.00    +0.178 C 
ENDROOT
BRANCH   1   6
ATOM      6  N   UNL     1       0.838   2.650   0.018  0.00  0.00    -0.270 N 
ATOM      7  C   UNL     1       0.079   3.719   0.507  0.00  0.00    +0.352 A 
ATOM      8  C   UNL     1       1.932   2.868  -0.789  0.00  0.00    +0.096 A 
ATOM      9  N   UNL     1       0.463   5.000   0.195  0.00  0.00    -0.178 NA
ATOM     10  O   UNL     1      -0.892   3.529   1.242  0.00  0.00    -0.244 OA
ATOM     11  C   UNL     1       2.315   4.098  -1.121  0.00  0.00    +0.061 A 
ATOM     12  C   UNL     1       1.502   5.194  -0.562  0.00  0.00    +0.123 A 
ATOM     13  N   UNL     1       1.857   6.485  -0.817  0.00  0.00    -0.343 N 
ATOM     14  H   UNL     1       1.405   7.139  -0.183  0.00  0.00    +0.144 HD
ATOM     15  H   UNL     1       2.852   6.674  -0.928  0.00  0.00    +0.144 HD
ENDBRANCH   1   6
BRANCH   3  16
ATOM     16  O   UNL     1      -1.980   0.886  -0.129  0.00  0.00    -0.385 OA
ATOM     17  H   UNL     1      -2.187   0.233   0.578  0.00  0.00    +0.210 HD
ENDBRANCH   3  16
BRANCH   5  18
ATOM     18  O   UNL     1      -0.876  -1.349   0.785  0.00  0.00    -0.386 OA
ATOM     19  H   UNL     1      -0.280  -1.185   1.541  0.00  0.00    +0.210 HD
ENDBRANCH   5  18
BRANCH   4  20
ATOM     20  C   UNL     1       1.932  -0.843  -1.683  0.00  0.00    +0.206 C 
BRANCH  20  21
ATOM     21  O   UNL     1       3.353  -0.846  -1.519  0.00  0.00    -0.284 OA
BRANCH  21  22
ATOM     22  P   UNL     1       4.242  -0.920  -3.001  0.00  0.00    +0.483 P 
ATOM     23  O   UNL     1       5.037  -0.986  -4.328  0.00  0.00    -0.227 OA
BRANCH  22  24
ATOM     24  O   UNL     1       3.954  -2.536  -2.971  0.00  0.00    -0.302 OA
ATOM     25  H   UNL     1       4.127  -2.894  -3.863  0.00  0.00    +0.222 HD
ENDBRANCH  22  24
BRANCH  22  26
ATOM     26  O   UNL     1       5.584  -0.883  -2.057  0.00  0.00    -0.186 OA
BRANCH  26  27
ATOM     27  P   UNL     1       6.161   0.535  -1.623  0.00  0.00    +0.481 P 
ATOM     28  O   UNL     1       6.157   1.642  -2.622  0.00  0.00    -0.227 OA
BRANCH  27  29
ATOM     29  O   UNL     1       5.436   0.885  -0.240  0.00  0.00    -0.302 OA
ATOM     30  H   UNL     1       5.726   0.284   0.470  0.00  0.00    +0.222 HD
ENDBRANCH  27  29
BRANCH  27  31
ATOM     31  O   UNL     1       7.618   0.175  -1.069  0.00  0.00    -0.302 OA
ATOM     32  H   UNL     1       8.235  -0.000  -1.803  0.00  0.00    +0.222 HD
ENDBRANCH  27  31
ENDBRANCH  26  27
ENDBRANCH  22  26
ENDBRANCH  21  22
ENDBRANCH  20  21
ENDBRANCH   4  20
TORSDOF 11
