REMARK  Name = 
REMARK  9 active torsions:
REMARK  status: ('A' for Active; 'I' for Inactive)
REMARK    1  A    between atoms: C_1  and  O_4
REMARK    2  A    between atoms: C_3  and  O_7
REMARK    3  A    between atoms: O_4  and  P_8
REMARK    4  A    between atoms: C_5  and  C_10
REMARK    5  A    between atoms: C_6  and  O_11
REMARK    6  A    between atoms: P_8  and  O_12
REMARK    7  A    between atoms: P_8  and  O_13
REMARK    8  A    between atoms: C_9  and  O_15
REMARK    9  A    between atoms: C_10  and  O_16
REMARK                            x       y       z     vdW  Elec       q    Type
REMARK                         _______ _______ _______ _____ _____    ______ ____
ROOT
ATOM      1  C   UNL     1       0.839   1.442  -0.090  0.00  0.00    +0.293 C 
ATOM      2  O   UNL     1      -0.369   2.073   0.330  0.00  0.00    -0.340 OA
ATOM      3  C   UNL     1       0.892   0.021   0.504  0.00  0.00    +0.202 C 
ATOM      4  C   UNL     1      -1.543   1.425  -0.198  0.00  0.00    +0.178 C 
ATOM      5  C   UNL     1      -0.277  -0.788  -0.054  0.00  0.00    +0.179 C 
ATOM      6  C   UNL     1      -1.610  -0.065   0.173  0.00  0.00    +0.177 C 
ENDROOT
BRANCH   3   7
ATOM      7  O   UNL     1       2.111  -0.681   0.214  0.00  0.00    -0.384 OA
ATOM      8  H   UNL     1       2.851  -0.050   0.265  0.00  0.00    +0.210 HD
ENDBRANCH   3   7
BRANCH   5   9
ATOM      9  O   UNL     1      -0.354  -2.073   0.590  0.00  0.00    -0.386 OA
ATOM     10  H   UNL     1       0.567  -2.319   0.805  0.00  0.00    +0.210 HD
ENDBRANCH   5   9
BRANCH   6  11
ATOM     11  O   UNL     1      -2.625  -0.714  -0.612  0.00  0.00    -0.386 OA
ATOM     12  H   UNL     1      -2.450  -1.672  -0.519  0.00  0.00    +0.210 HD
ENDBRANCH   6  11
BRANCH   1  13
ATOM     13  O   UNL     1       0.947   1.392  -1.495  0.00  0.00    -0.254 OA
BRANCH  13  14
ATOM     14  P   UNL     1       1.484   2.686  -2.239  0.00  0.00    +0.475 P 
ATOM     15  O   UNL     1       0.746   3.963  -2.044  0.00  0.00    -0.227 OA
BRANCH  14  16
ATOM     16  O   UNL     1       3.011   2.811  -1.782  0.00  0.00    -0.303 OA
ATOM     17  H   UNL     1       3.243   3.745  -1.614  0.00  0.00    +0.222 HD
ENDBRANCH  14  16
BRANCH  14  18
ATOM     18  O   UNL     1       1.621   2.273  -3.773  0.00  0.00    -0.303 OA
ATOM     19  H   UNL     1       1.674   3.042  -4.367  0.00  0.00    +0.222 HD
ENDBRANCH  14  18
ENDBRANCH  13  14
ENDBRANCH   1  13
BRANCH   4  20
ATOM     20  C   UNL     1      -2.755   2.182   0.360  0.00  0.00    +0.190 C 
BRANCH  20  21
ATOM     21  O   UNL     1      -2.698   2.234   1.789  0.00  0.00    -0.392 OA
ATOM     22  H   UNL     1      -1.818   2.598   2.000  0.00  0.00    +0.210 HD
ENDBRANCH  20  21
ENDBRANCH   4  20
TORSDOF 9
