REMARK  Name = 
REMARK  4 active torsions:
REMARK  status: ('A' for Active; 'I' for Inactive)
REMARK    1  A    between atoms: C_1  and  S_2
REMARK    2  A    between atoms: C_1  and  C_3
REMARK    3  A    between atoms: S_2  and  O_4
REMARK    4  A    between atoms: C_3  and  N_5
REMARK                            x       y       z     vdW  Elec       q    Type
REMARK                         _______ _______ _______ _____ _____    ______ ____
ROOT
ATOM      1  C   UNL     1       0.915   0.075  -0.010  0.00  0.00    +0.212 C 
ENDROOT
BRANCH   1   2
ATOM      2  S   UNL     1       0.332  -1.257   1.023  0.00  0.00    +0.081 S 
ATOM      3  O   UNL     1       0.610  -2.523   0.385  0.00  0.00    -0.147 OA
ATOM      4  O   UNL     1       0.655  -0.991   2.406  0.00  0.00    -0.147 OA
BRANCH   2   5
ATOM      5  O   UNL     1      -1.251  -1.010   0.822  0.00  0.00    -0.254 OA
ATOM      6  H   UNL     1      -1.632  -1.805   0.390  0.00  0.00    +0.244 HD
ENDBRANCH   2   5
ENDBRANCH   1   2
BRANCH   1   7
ATOM      7  C   UNL     1       2.435   0.095  -0.037  0.00  0.00    +0.103 C 
BRANCH   7   8
ATOM      8  N   UNL     1       2.924   1.181  -0.889  0.00  0.00    -0.328 NA
ATOM      9  H   UNL     1       2.662   1.014  -1.861  0.00  0.00    +0.118 HD
ATOM     10  H   UNL     1       3.944   1.189  -0.872  0.00  0.00    +0.118 HD
ENDBRANCH   7   8
ENDBRANCH   1   7
TORSDOF 4
