REMARK  Name = 
REMARK  23 active torsions:
REMARK  status: ('A' for Active; 'I' for Inactive)
REMARK    1  A    between atoms: N_7  and  C_19
REMARK    2  A    between atoms: C_12  and  C_18
REMARK    3  A    between atoms: C_13  and  C_17
REMARK    4  A    between atoms: C_19  and  C_20
REMARK    5  A    between atoms: C_20  and  C_21
REMARK    6  A    between atoms: C_20  and  O_25
REMARK    7  A    between atoms: C_21  and  C_22
REMARK    8  A    between atoms: C_21  and  O_27
REMARK    9  A    between atoms: C_22  and  C_23
REMARK   10  A    between atoms: C_22  and  O_26
REMARK   11  A    between atoms: C_23  and  O_24
REMARK   12  A    between atoms: O_24  and  P_28
REMARK   13  A    between atoms: P_28  and  O_29
REMARK   14  A    between atoms: P_28  and  O_31
REMARK   15  A    between atoms: O_29  and  P_32
REMARK   16  A    between atoms: P_32  and  O_33
REMARK   17  A    between atoms: P_32  and  O_35
REMARK   18  A    between atoms: O_33  and  C_37
REMARK   19  A    between atoms: C_36  and  C_37
REMARK   20  A    between atoms: C_38  and  O_42
REMARK   21  A    between atoms: C_39  and  O_43
REMARK   22  A    between atoms: C_40  and  N_50
REMARK   23  A    between atoms: C_49  and  N_53
REMARK                            x       y       z     vdW  Elec       q    Type
REMARK                         _______ _______ _______ _____ _____    ______ ____
ROOT
ATOM      1  P   UNL     1      -2.784   0.639   2.418  0.00  0.00    +0.483 P 
ATOM      2  O   UNL     1      -3.480  -0.618   1.904  0.00  0.00    -0.227 OA
ENDROOT
BRANCH   1   3
ATOM      3  O   UNL     1      -1.259  -0.176   2.358  0.00  0.00    -0.302 OA
ATOM      4  H   UNL     1      -0.560   0.345   2.789  0.00  0.00    +0.222 HD
ENDBRANCH   1   3
BRANCH   1   5
ATOM      5  O   UNL     1      -2.750   0.574   4.147  0.00  0.00    -0.186 OA
BRANCH   5   6
ATOM      6  P   UNL     1      -3.598   1.937   4.792  0.00  0.00    +0.483 P 
ATOM      7  O   UNL     1      -2.841   1.795   6.111  0.00  0.00    -0.227 OA
BRANCH   6   8
ATOM      8  O   UNL     1      -4.446   3.299   5.437  0.00  0.00    -0.302 OA
ATOM      9  H   UNL     1      -5.023   3.739   4.796  0.00  0.00    +0.222 HD
ENDBRANCH   6   8
BRANCH   6  10
ATOM     10  O   UNL     1      -5.044   1.128   4.913  0.00  0.00    -0.284 OA
BRANCH  10  11
ATOM     11  C   UNL     1      -5.152  -0.291   4.982  0.00  0.00    +0.206 C 
BRANCH  11  12
ATOM     12  C   UNL     1      -6.616  -0.757   4.862  0.00  0.00    +0.178 C 
ATOM     13  C   UNL     1      -6.740  -2.276   5.074  0.00  0.00    +0.178 C 
ATOM     14  C   UNL     1      -7.591  -2.800   3.906  0.00  0.00    +0.195 C 
ATOM     15  C   UNL     1      -8.181  -1.510   3.336  0.00  0.00    +0.253 C 
ATOM     16  O   UNL     1      -7.181  -0.488   3.552  0.00  0.00    -0.346 OA
BRANCH  15  23
ATOM     17  N   UNL     1      -8.748  -3.370  -1.566  0.00  0.00    -0.219 NA
ATOM     18  C   UNL     1      -7.766  -3.636  -0.669  0.00  0.00    +0.225 A 
ATOM     19  N   UNL     1      -7.612  -3.163   0.595  0.00  0.00    -0.216 NA
ATOM     20  C   UNL     1      -8.531  -2.222   0.869  0.00  0.00    +0.167 A 
ATOM     21  C   UNL     1      -9.552  -1.812   0.015  0.00  0.00    +0.147 A 
ATOM     22  C   UNL     1      -9.702  -2.487  -1.208  0.00  0.00    +0.147 A 
ATOM     23  N   UNL     1      -8.684  -1.429   1.979  0.00  0.00    -0.286 N 
ATOM     24  C   UNL     1      -9.598  -0.451   1.634  0.00  0.00    +0.203 A 
ATOM     25  N   UNL     1     -10.222  -0.724   0.519  0.00  0.00    -0.231 NA
BRANCH  22  26
ATOM     26  N   UNL     1     -10.755  -2.215  -2.078  0.00  0.00    -0.341 N 
ATOM     27  H   UNL     1     -11.270  -1.381  -1.814  0.00  0.00    +0.144 HD
ATOM     28  H   UNL     1     -10.495  -2.311  -3.050  0.00  0.00    +0.144 HD
ENDBRANCH  22  26
ENDBRANCH  15  23
BRANCH  14  29
ATOM     29  O   UNL     1      -8.595  -3.693   4.406  0.00  0.00    -0.385 OA
ATOM     30  H   UNL     1      -8.122  -4.445   4.816  0.00  0.00    +0.210 HD
ENDBRANCH  14  29
BRANCH  13  31
ATOM     31  O   UNL     1      -7.346  -2.549   6.344  0.00  0.00    -0.386 OA
ATOM     32  H   UNL     1      -8.294  -2.732   6.191  0.00  0.00    +0.210 HD
ENDBRANCH  13  31
ENDBRANCH  11  12
ENDBRANCH  10  11
ENDBRANCH   6  10
ENDBRANCH   5   6
ENDBRANCH   1   5
BRANCH   1  33
ATOM     33  O   UNL     1      -4.308   1.454   2.479  0.00  0.00    -0.284 OA
BRANCH  33  34
ATOM     34  C   UNL     1      -4.290   2.892   2.296  0.00  0.00    +0.206 C 
BRANCH  34  35
ATOM     35  C   UNL     1      -3.421   3.462   1.190  0.00  0.00    +0.172 C 
BRANCH  35  36
ATOM     36  O   UNL     1      -2.144   2.841   1.328  0.00  0.00    -0.387 OA
ATOM     37  H   UNL     1      -1.901   2.400   0.494  0.00  0.00    +0.210 HD
ENDBRANCH  35  36
BRANCH  35  38
ATOM     38  C   UNL     1      -4.114   3.382  -0.167  0.00  0.00    +0.175 C 
BRANCH  38  39
ATOM     39  O   UNL     1      -5.323   4.169  -0.097  0.00  0.00    -0.387 OA
ATOM     40  H   UNL     1      -5.955   3.771   0.528  0.00  0.00    +0.210 HD
ENDBRANCH  38  39
BRANCH  38  41
ATOM     41  C   UNL     1      -3.288   4.029  -1.302  0.00  0.00    +0.165 C 
BRANCH  41  42
ATOM     42  O   UNL     1      -3.049   5.408  -0.938  0.00  0.00    -0.387 OA
ATOM     43  H   UNL     1      -3.885   5.724  -0.538  0.00  0.00    +0.210 HD
ENDBRANCH  41  42
BRANCH  41  44
ATOM     44  C   UNL     1      -1.914   3.400  -1.609  0.00  0.00    +0.158 C 
BRANCH  44  51
ATOM     45  N   UNL     1      -4.881  -0.399  -3.261  0.00  0.00    -0.272 N 
ATOM     46  C   UNL     1      -4.918   0.961  -3.328  0.00  0.00    +0.351 A 
ATOM     47  N   UNL     1      -3.893   1.697  -2.802  0.00  0.00    -0.173 NA
ATOM     48  C   UNL     1      -2.871   1.166  -2.210  0.00  0.00    +0.170 A 
ATOM     49  C   UNL     1      -2.780  -0.337  -2.134  0.00  0.00    +0.171 A 
ATOM     50  C   UNL     1      -3.982  -1.137  -2.554  0.00  0.00    +0.282 A 
ATOM     51  N   UNL     1      -1.873   1.923  -1.589  0.00  0.00    -0.320 N 
ATOM     52  C   UNL     1      -0.632   1.267  -1.382  0.00  0.00    +0.069 A 
ATOM     53  C   UNL     1      -0.576  -0.145  -1.449  0.00  0.00    +0.089 A 
ATOM     54  N   UNL     1      -1.696  -0.935  -1.749  0.00  0.00    -0.237 NA
ATOM     55  C   UNL     1       0.583   1.961  -1.144  0.00  0.00    +0.031 A 
ATOM     56  C   UNL     1       1.818   1.281  -1.025  0.00  0.00    -0.045 A 
ATOM     57  C   UNL     1       1.847  -0.118  -1.102  0.00  0.00    -0.045 A 
ATOM     58  C   UNL     1       0.641  -0.810  -1.275  0.00  0.00    +0.033 A 
ATOM     59  O   UNL     1      -4.129  -2.315  -2.283  0.00  0.00    -0.265 OA
ATOM     60  O   UNL     1      -5.908   1.496  -3.811  0.00  0.00    -0.245 OA
ATOM     61  C   UNL     1       3.114  -0.925  -1.077  0.00  0.00    +0.044 C 
ATOM     62  C   UNL     1       3.078   2.091  -0.880  0.00  0.00    +0.044 C 
ATOM     63  H   UNL     1      -5.720  -0.876  -3.558  0.00  0.00    +0.174 HD
ENDBRANCH  44  51
ENDBRANCH  41  44
ENDBRANCH  38  41
ENDBRANCH  35  38
ENDBRANCH  34  35
ENDBRANCH  33  34
ENDBRANCH   1  33
TORSDOF 21
