REMARK  Name = 
REMARK  6 active torsions:
REMARK  status: ('A' for Active; 'I' for Inactive)
REMARK    1  A    between atoms: CG_1  and  CB_7
REMARK    2  A    between atoms: CZ_4  and  OH_8
REMARK    3  A    between atoms: CB_7  and  CA_9
REMARK    4  A    between atoms: CA_9  and  C_10
REMARK    5  A    between atoms: CA_9  and  N_13
REMARK    6  A    between atoms: C_10  and  O_11
REMARK                            x       y       z     vdW  Elec       q    Type
REMARK                         _______ _______ _______ _____ _____    ______ ____
ROOT
ATOM      1  CB  TYR A   1      -3.305  -0.065   0.029  0.00  0.00    +0.065 C 
ENDROOT
BRANCH   1   2
ATOM      2  CG  TYR A   1      -1.794  -0.034  -0.067  0.00  0.00    -0.045 A 
ATOM      3  CD1 TYR A   1      -1.025  -1.192  -0.249  0.00  0.00    +0.007 A 
ATOM      4  CE1 TYR A   1       0.370  -1.133  -0.236  0.00  0.00    +0.045 A 
ATOM      5  CZ  TYR A   1       1.003   0.094  -0.091  0.00  0.00    +0.117 A 
ATOM      6  CE2 TYR A   1       0.264   1.265   0.009  0.00  0.00    +0.045 A 
ATOM      7  CD2 TYR A   1      -1.131   1.202   0.017  0.00  0.00    +0.007 A 
BRANCH   5   8
ATOM      8  OH  TYR A   1       2.362   0.188  -0.037  0.00  0.00    -0.507 OA
ATOM      9  HH  TYR A   1       2.724  -0.712   0.014  0.00  0.00    +0.292 HD
ENDBRANCH   5   8
ENDBRANCH   1   2
BRANCH   1  10
ATOM     10  CA  TYR A   1      -3.955  -1.322   0.645  0.00  0.00    +0.165 C 
BRANCH  10  11
ATOM     11  N   TYR A   1      -5.433  -1.197   0.547  0.00  0.00    -0.318 NA
ATOM     12  H1  TYR A   1      -5.809  -0.353   0.971  0.00  0.00    +0.119 HD
ATOM     13  H2  TYR A   1      -5.928  -2.050   0.795  0.00  0.00    +0.119 HD
ENDBRANCH  10  11
BRANCH  10  14
ATOM     14  C   TYR A   1      -3.497  -1.570   2.105  0.00  0.00    +0.322 C 
ATOM     15  OXT TYR A   1      -2.355  -1.827   2.450  0.00  0.00    -0.249 OA
BRANCH  14  16
ATOM     16  O   TYR A   1      -4.509  -1.527   3.008  0.00  0.00    -0.480 OA
ATOM     17  H   TYR A   1      -5.358  -1.365   2.562  0.00  0.00    +0.295 HD
ENDBRANCH  14  16
ENDBRANCH  10  14
ENDBRANCH   1  10
TORSDOF 6
