REMARK  Name = 
REMARK  15 active torsions:
REMARK  status: ('A' for Active; 'I' for Inactive)
REMARK    1  A    between atoms: C_1  and  N_2
REMARK    2  A    between atoms: C_4  and  O_9
REMARK    3  A    between atoms: C_7  and  C_13
REMARK    4  A    between atoms: C_8  and  O_14
REMARK    5  A    between atoms: C_13  and  O_16
REMARK    6  A    between atoms: O_16  and  P_18
REMARK    7  A    between atoms: P_18  and  O_19
REMARK    8  A    between atoms: P_18  and  O_20
REMARK    9  A    between atoms: O_19  and  P_22
REMARK   10  A    between atoms: P_22  and  O_23
REMARK   11  A    between atoms: P_22  and  O_24
REMARK   12  A    between atoms: O_23  and  C_26
REMARK   13  A    between atoms: C_27  and  O_30
REMARK   14  A    between atoms: C_29  and  O_33
REMARK   15  A    between atoms: C_32  and  O_34
REMARK                            x       y       z     vdW  Elec       q    Type
REMARK                         _______ _______ _______ _____ _____    ______ ____
ROOT
ATOM      1  P   UNL     1       2.555  -2.232  -3.870  0.00  0.00    +0.483 P 
ATOM      2  O   UNL     1       3.245  -2.331  -5.252  0.00  0.00    -0.227 OA
ENDROOT
BRANCH   1   3
ATOM      3  O   UNL     1       3.930  -1.637  -3.204  0.00  0.00    -0.302 OA
ATOM      4  H   UNL     1       4.657  -1.862  -3.820  0.00  0.00    +0.222 HD
ENDBRANCH   1   3
BRANCH   1   5
ATOM      5  O   UNL     1       1.784  -2.123  -2.325  0.00  0.00    -0.284 OA
BRANCH   5   6
ATOM      6  C   UNL     1       2.091  -0.964  -1.511  0.00  0.00    +0.206 C 
BRANCH   6  10
ATOM      7  C   UNL     1       2.536  -1.572   1.724  0.00  0.00    +0.255 C 
ATOM      8  O   UNL     1       1.743  -2.067   0.623  0.00  0.00    -0.346 OA
ATOM      9  C   UNL     1       2.861  -0.100   1.426  0.00  0.00    +0.195 C 
ATOM     10  C   UNL     1       1.318  -0.948  -0.191  0.00  0.00    +0.178 C 
ATOM     11  C   UNL     1       1.638   0.313   0.619  0.00  0.00    +0.178 C 
BRANCH   7  12
ATOM     12  N   UNL     1       3.717  -2.415   1.922  0.00  0.00    -0.271 N 
ATOM     13  C   UNL     1       4.182  -2.556   3.221  0.00  0.00    +0.331 A 
ATOM     14  C   UNL     1       4.360  -3.010   0.849  0.00  0.00    +0.098 A 
ATOM     15  N   UNL     1       5.300  -3.343   3.366  0.00  0.00    -0.275 N 
ATOM     16  O   UNL     1       3.655  -2.062   4.203  0.00  0.00    -0.246 OA
ATOM     17  C   UNL     1       5.431  -3.793   1.014  0.00  0.00    +0.088 A 
ATOM     18  C   UNL     1       5.938  -4.027   2.373  0.00  0.00    +0.254 A 
ATOM     19  O   UNL     1       6.871  -4.792   2.575  0.00  0.00    -0.268 OA
ATOM     20  H   UNL     1       5.625  -3.486   4.308  0.00  0.00    +0.173 HD
ENDBRANCH   7  12
BRANCH   9  21
ATOM     21  O   UNL     1       3.020   0.720   2.581  0.00  0.00    -0.385 OA
ATOM     22  H   UNL     1       2.115   0.995   2.846  0.00  0.00    +0.210 HD
ENDBRANCH   9  21
BRANCH  11  23
ATOM     23  O   UNL     1       0.589   0.651   1.544  0.00  0.00    -0.386 OA
ATOM     24  H   UNL     1      -0.003  -0.117   1.648  0.00  0.00    +0.210 HD
ENDBRANCH  11  23
ENDBRANCH   6  10
ENDBRANCH   5   6
ENDBRANCH   1   5
BRANCH   1  25
ATOM     25  O   UNL     1       1.748  -0.860  -4.263  0.00  0.00    -0.186 OA
BRANCH  25  26
ATOM     26  P   UNL     1       0.142  -0.840  -4.316  0.00  0.00    +0.486 P 
ATOM     27  O   UNL     1      -0.581  -0.805  -3.007  0.00  0.00    -0.227 OA
BRANCH  26  28
ATOM     28  O   UNL     1      -0.225  -2.192  -5.094  0.00  0.00    -0.302 OA
ATOM     29  H   UNL     1      -0.690  -2.808  -4.493  0.00  0.00    +0.222 HD
ENDBRANCH  26  28
BRANCH  26  30
ATOM     30  O   UNL     1      -0.257   0.322  -5.349  0.00  0.00    -0.254 OA
BRANCH  30  31
ATOM     31  C   UNL     1      -1.016   1.401  -4.822  0.00  0.00    +0.293 C 
ATOM     32  C   UNL     1      -1.422   2.386  -5.937  0.00  0.00    +0.202 C 
ATOM     33  O   UNL     1      -0.311   2.112  -3.803  0.00  0.00    -0.346 OA
ATOM     34  C   UNL     1      -0.167   3.034  -6.536  0.00  0.00    +0.178 C 
ATOM     35  C   UNL     1       0.885   2.737  -4.262  0.00  0.00    +0.197 C 
ATOM     36  C   UNL     1       0.661   3.702  -5.427  0.00  0.00    +0.171 C 
BRANCH  32  37
ATOM     37  O   UNL     1      -2.212   1.777  -6.965  0.00  0.00    -0.384 OA
ATOM     38  H   UNL     1      -1.608   1.404  -7.633  0.00  0.00    +0.210 HD
ENDBRANCH  32  37
BRANCH  34  39
ATOM     39  O   UNL     1      -0.514   3.995  -7.543  0.00  0.00    -0.386 OA
ATOM     40  H   UNL     1      -1.486   4.060  -7.589  0.00  0.00    +0.210 HD
ENDBRANCH  34  39
BRANCH  36  41
ATOM     41  O   UNL     1       1.931   4.155  -5.903  0.00  0.00    -0.387 OA
ATOM     42  H   UNL     1       2.247   3.533  -6.582  0.00  0.00    +0.210 HD
ENDBRANCH  36  41
ENDBRANCH  30  31
ENDBRANCH  26  30
ENDBRANCH  25  26
ENDBRANCH   1  25
TORSDOF 15
