REMARK  Name = 
REMARK  4 active torsions:
REMARK  status: ('A' for Active; 'I' for Inactive)
REMARK    1  A    between atoms: C_1  and  C_2
REMARK    2  A    between atoms: C_1  and  O_3
REMARK    3  A    between atoms: C_5  and  C_6
REMARK    4  A    between atoms: C_6  and  O_7
REMARK                            x       y       z     vdW  Elec       q    Type
REMARK                         _______ _______ _______ _____ _____    ______ ____
ROOT
ATOM      1  C   UNL     1       0.265   1.139  -0.689  0.00  0.00    +0.098 C 
ATOM      2  C   UNL     1       0.927   2.176  -1.228  0.00  0.00    +0.098 C 
ENDROOT
BRANCH   1   3
ATOM      3  C   UNL     1       1.072   0.046  -0.121  0.00  0.00    +0.330 C 
ATOM      4  O   UNL     1       2.291   0.033  -0.114  0.00  0.00    -0.246 OA
BRANCH   3   5
ATOM      5  O   UNL     1       0.319  -0.943   0.393  0.00  0.00    -0.478 OA
ATOM      6  H   UNL     1      -0.647  -0.822   0.330  0.00  0.00    +0.295 HD
ENDBRANCH   3   5
ENDBRANCH   1   3
BRANCH   2   7
ATOM      7  C   UNL     1       0.178   3.298  -1.811  0.00  0.00    +0.330 C 
ATOM      8  O   UNL     1      -1.038   3.364  -1.846  0.00  0.00    -0.246 OA
BRANCH   7   9
ATOM      9  O   UNL     1       0.994   4.248  -2.305  0.00  0.00    -0.478 OA
ATOM     10  H   UNL     1       1.949   4.078  -2.217  0.00  0.00    +0.295 HD
ENDBRANCH   7   9
ENDBRANCH   2   7
TORSDOF 4
