REMARK  Name = 
REMARK  14 active torsions:
REMARK  status: ('A' for Active; 'I' for Inactive)
REMARK    1  A    between atoms: N_1  and  C_3
REMARK    2  A    between atoms: C_2  and  C_6
REMARK    3  A    between atoms: C_3  and  C_7
REMARK    4  A    between atoms: C_5  and  C_9
REMARK    5  A    between atoms: C_9  and  C_12
REMARK    6  A    between atoms: C_10  and  N_14
REMARK    7  A    between atoms: C_12  and  O_16
REMARK    8  A    between atoms: O_16  and  P_19
REMARK    9  A    between atoms: C_17  and  C_18
REMARK   10  A    between atoms: P_19  and  O_20
REMARK   11  A    between atoms: P_19  and  O_22
REMARK   12  A    between atoms: O_20  and  P_23
REMARK   13  A    between atoms: P_23  and  O_24
REMARK   14  A    between atoms: P_23  and  O_26
REMARK                            x       y       z     vdW  Elec       q    Type
REMARK                         _______ _______ _______ _____ _____    ______ ____
ROOT
ATOM      1  N   UNL     1       1.127  -0.554  -0.120  0.00  0.00    -0.340 N 
ATOM      2  C   UNL     1       0.867   0.815  -0.259  0.00  0.00    +0.026 A 
ATOM      3  C   UNL     1       0.044  -1.303   0.015  0.00  0.00    +0.132 A 
ATOM      4  C   UNL     1      -0.480   1.103  -0.085  0.00  0.00    +0.012 A 
ATOM      5  C   UNL     1       1.965   1.782  -0.489  0.00  0.00    +0.064 C 
ATOM      6  S   UNL     1      -1.374  -0.360   0.068  0.00  0.00    -0.082 S 
ENDROOT
BRANCH   1   7
ATOM      7  C   UNL     1       2.456  -1.153   0.086  0.00  0.00    +0.162 C 
BRANCH   7   8
ATOM      8  C   UNL     1       3.087  -1.717  -1.143  0.00  0.00    +0.030 A 
ATOM      9  C   UNL     1       2.799  -2.965  -1.649  0.00  0.00    +0.125 A 
ATOM     10  C   UNL     1       4.090  -1.048  -1.815  0.00  0.00    +0.121 A 
ATOM     11  N   UNL     1       3.453  -3.517  -2.678  0.00  0.00    -0.218 NA
ATOM     12  N   UNL     1       4.779  -1.562  -2.845  0.00  0.00    -0.240 NA
ATOM     13  C   UNL     1       4.451  -2.805  -3.226  0.00  0.00    +0.128 A 
ATOM     14  C   UNL     1       5.313  -3.456  -4.262  0.00  0.00    +0.088 C 
BRANCH   9  15
ATOM     15  N   UNL     1       1.831  -3.793  -1.066  0.00  0.00    -0.343 N 
ATOM     16  H   UNL     1       2.156  -4.163  -0.174  0.00  0.00    +0.144 HD
ATOM     17  H   UNL     1       1.769  -4.600  -1.700  0.00  0.00    +0.144 HD
ENDBRANCH   9  15
ENDBRANCH   7   8
ENDBRANCH   1   7
BRANCH   4  18
ATOM     18  C   UNL     1      -1.209   2.424   0.025  0.00  0.00    +0.073 C 
BRANCH  18  19
ATOM     19  C   UNL     1      -1.108   3.308  -1.212  0.00  0.00    +0.177 C 
BRANCH  19  20
ATOM     20  O   UNL     1      -1.595   2.593  -2.321  0.00  0.00    -0.286 OA
BRANCH  20  21
ATOM     21  P   UNL     1      -1.538   3.307  -3.753  0.00  0.00    +0.483 P 
ATOM     22  O   UNL     1      -2.126   4.667  -3.881  0.00  0.00    -0.227 OA
BRANCH  21  23
ATOM     23  O   UNL     1       0.041   3.276  -4.065  0.00  0.00    -0.302 OA
ATOM     24  H   UNL     1       0.229   3.659  -4.942  0.00  0.00    +0.222 HD
ENDBRANCH  21  23
BRANCH  21  25
ATOM     25  O   UNL     1      -2.067   2.210  -4.760  0.00  0.00    -0.186 OA
BRANCH  25  26
ATOM     26  P   UNL     1      -3.745   2.082  -5.165  0.00  0.00    +0.481 P 
ATOM     27  O   UNL     1      -4.020   1.376  -3.838  0.00  0.00    -0.227 OA
BRANCH  26  28
ATOM     28  O   UNL     1      -3.457   0.816  -6.152  0.00  0.00    -0.302 OA
ATOM     29  H   UNL     1      -3.505   0.014  -5.589  0.00  0.00    +0.222 HD
ENDBRANCH  26  28
BRANCH  26  30
ATOM     30  O   UNL     1      -5.422   1.953  -5.569  0.00  0.00    -0.302 OA
ATOM     31  H   UNL     1      -5.484   1.490  -6.426  0.00  0.00    +0.222 HD
ENDBRANCH  26  30
ENDBRANCH  25  26
ENDBRANCH  21  25
ENDBRANCH  20  21
ENDBRANCH  19  20
ENDBRANCH  18  19
ENDBRANCH   4  18
TORSDOF 12
