REMARK  Name = 
REMARK  7 active torsions:
REMARK  status: ('A' for Active; 'I' for Inactive)
REMARK    1  A    between atoms: CA_1  and  C_2
REMARK    2  A    between atoms: CA_1  and  CB_3
REMARK    3  A    between atoms: CA_1  and  N_4
REMARK    4  A    between atoms: C_2  and  O_5
REMARK    5  A    between atoms: CB_3  and  CG_7
REMARK    6  A    between atoms: CG_7  and  SD_8
REMARK    7  A    between atoms: SD_8  and  CE_9
REMARK                            x       y       z     vdW  Elec       q    Type
REMARK                         _______ _______ _______ _____ _____    ______ ____
ROOT
ATOM      1  CA  MET A   1       0.999  -0.103  -0.028  0.00  0.00    +0.161 C 
ENDROOT
BRANCH   1   2
ATOM      2  N   MET A   1       0.789  -1.431   0.586  0.00  0.00    -0.318 NA
ATOM      3  H1  MET A   1      -0.190  -1.674   0.689  0.00  0.00    +0.119 HD
ATOM      4  H2  MET A   1       1.197  -1.436   1.524  0.00  0.00    +0.119 HD
ENDBRANCH   1   2
BRANCH   1   5
ATOM      5  C   MET A   1       0.388   0.997   0.852  0.00  0.00    +0.322 C 
ATOM      6  OXT MET A   1       1.030   1.926   1.321  0.00  0.00    -0.249 OA
BRANCH   5   7
ATOM      7  O   MET A   1      -0.938   0.849   1.081  0.00  0.00    -0.480 OA
ATOM      8  H   MET A   1      -1.326   0.080   0.625  0.00  0.00    +0.295 HD
ENDBRANCH   5   7
ENDBRANCH   1   5
BRANCH   1   9
ATOM      9  CB  MET A   1       0.433  -0.093  -1.453  0.00  0.00    +0.040 C 
BRANCH   9  10
ATOM     10  CG  MET A   1       0.652   1.244  -2.167  0.00  0.00    +0.071 C 
BRANCH  10  11
ATOM     11  SD  MET A   1      -0.006   1.120  -3.863  0.00  0.00    -0.164 S 
ATOM     12  CE  MET A   1       0.347   2.801  -4.427  0.00  0.00    +0.084 C 
ENDBRANCH  10  11
ENDBRANCH   9  10
ENDBRANCH   1   9
TORSDOF 6
