REMARK  Name = 
REMARK  30 active torsions:
REMARK  status: ('A' for Active; 'I' for Inactive)
REMARK    1  A    between atoms: C_1  and  C_2
REMARK    2  A    between atoms: C_1  and  C_52
REMARK    3  A    between atoms: C_2  and  S_3
REMARK    4  A    between atoms: S_3  and  C_4
REMARK    5  A    between atoms: C_4  and  C_5
REMARK    6  A    between atoms: C_5  and  N_6
REMARK    7  A    between atoms: C_7  and  C_8
REMARK    8  A    between atoms: C_8  and  C_9
REMARK    9  A    between atoms: C_9  and  N_10
REMARK   10  A    between atoms: C_11  and  C_12
REMARK   11  A    between atoms: C_12  and  C_13
REMARK   12  A    between atoms: C_12  and  O_19
REMARK   13  A    between atoms: C_13  and  C_14
REMARK   14  A    between atoms: C_13  and  C_20
REMARK   15  A    between atoms: C_13  and  C_21
REMARK   16  A    between atoms: C_14  and  O_15
REMARK   17  A    between atoms: O_15  and  P_22
REMARK   18  A    between atoms: P_22  and  O_24
REMARK   19  A    between atoms: P_22  and  O_51
REMARK   20  A    between atoms: C_25  and  O_31
REMARK   21  A    between atoms: C_26  and  O_32
REMARK   22  A    between atoms: C_27  and  C_30
REMARK   23  A    between atoms: C_29  and  N_39
REMARK   24  A    between atoms: C_30  and  O_47
REMARK   25  A    between atoms: O_32  and  P_33
REMARK   26  A    between atoms: P_33  and  O_34
REMARK   27  A    between atoms: P_33  and  O_35
REMARK   28  A    between atoms: O_47  and  P_48
REMARK   29  A    between atoms: P_48  and  O_49
REMARK   30  A    between atoms: P_48  and  O_51
REMARK                            x       y       z     vdW  Elec       q    Type
REMARK                         _______ _______ _______ _____ _____    ______ ____
ROOT
ATOM      1  P   UNL     1      -0.408  11.339   2.934  0.00  0.00    +0.483 P 
ATOM      2  O   UNL     1      -0.328  12.790   3.261  0.00  0.00    -0.227 OA
ENDROOT
BRANCH   1   3
ATOM      3  O   UNL     1      -1.359  11.056   1.689  0.00  0.00    -0.302 OA
ATOM      4  H   UNL     1      -1.435  11.790   1.060  0.00  0.00    +0.222 HD
ENDBRANCH   1   3
BRANCH   1   5
ATOM      5  O   UNL     1       1.002  10.627   2.641  0.00  0.00    -0.284 OA
BRANCH   5   6
ATOM      6  C   UNL     1       2.016  11.328   1.947  0.00  0.00    +0.206 C 
BRANCH   6   9
ATOM      7  C   UNL     1       1.259  10.785  -1.663  0.00  0.00    +0.196 C 
ATOM      8  C   UNL     1       1.262  10.250  -0.246  0.00  0.00    +0.194 C 
ATOM      9  C   UNL     1       1.604  11.541   0.503  0.00  0.00    +0.179 C 
ATOM     10  O   UNL     1       2.607  12.203  -0.275  0.00  0.00    -0.346 OA
ATOM     11  C   UNL     1       2.504  11.694  -1.636  0.00  0.00    +0.253 C 
BRANCH  11  14
ATOM     12  C   UNL     1       5.327  10.055  -3.123  0.00  0.00    +0.147 A 
ATOM     13  C   UNL     1       4.002  10.450  -3.189  0.00  0.00    +0.167 A 
ATOM     14  N   UNL     1       3.743  11.028  -1.979  0.00  0.00    -0.286 N 
ATOM     15  C   UNL     1       4.881  10.929  -1.224  0.00  0.00    +0.203 A 
ATOM     16  N   UNL     1       5.858  10.339  -1.881  0.00  0.00    -0.231 NA
ATOM     17  C   UNL     1       5.863   9.467  -4.280  0.00  0.00    +0.147 A 
ATOM     18  N   UNL     1       5.047   9.272  -5.341  0.00  0.00    -0.219 NA
ATOM     19  C   UNL     1       3.765   9.687  -5.253  0.00  0.00    +0.225 A 
ATOM     20  N   UNL     1       3.157  10.307  -4.221  0.00  0.00    -0.216 NA
ATOM     21  N   UNL     1       7.188   9.072  -4.387  0.00  0.00    -0.341 N 
ATOM     22  H   UNL     1       7.643   8.918  -3.495  0.00  0.00    +0.144 HD
ATOM     23  H   UNL     1       7.330   8.389  -5.119  0.00  0.00    +0.144 HD
ENDBRANCH  11  14
BRANCH   7  24
ATOM     24  O   UNL     1       0.041  11.540  -1.879  0.00  0.00    -0.385 OA
ATOM     25  H   UNL     1       0.133  12.429  -1.494  0.00  0.00    +0.210 HD
ENDBRANCH   7  24
BRANCH   8  26
ATOM     26  O   UNL     1       0.023   9.745   0.171  0.00  0.00    -0.278 OA
BRANCH  26  27
ATOM     27  P   UNL     1      -0.638   8.460  -0.494  0.00  0.00    +0.473 P 
ATOM     28  O   UNL     1       0.261   7.286  -0.617  0.00  0.00    -0.228 OA
BRANCH  27  29
ATOM     29  O   UNL     1      -1.264   9.011  -1.850  0.00  0.00    -0.303 OA
ATOM     30  H   UNL     1      -1.809   9.794  -1.699  0.00  0.00    +0.222 HD
ENDBRANCH  27  29
BRANCH  27  31
ATOM     31  O   UNL     1      -1.950   8.207   0.379  0.00  0.00    -0.303 OA
ATOM     32  H   UNL     1      -1.755   7.733   1.209  0.00  0.00    +0.222 HD
ENDBRANCH  27  31
ENDBRANCH  26  27
ENDBRANCH   8  26
ENDBRANCH   6   9
ENDBRANCH   5   6
ENDBRANCH   1   5
BRANCH   1  33
ATOM     33  O   UNL     1      -1.040  10.364   4.010  0.00  0.00    -0.186 OA
BRANCH  33  34
ATOM     34  P   UNL     1      -0.042  10.201   5.415  0.00  0.00    +0.483 P 
ATOM     35  O   UNL     1      -0.790   8.919   5.791  0.00  0.00    -0.227 OA
BRANCH  34  36
ATOM     36  O   UNL     1      -0.880  11.380   6.165  0.00  0.00    -0.302 OA
ATOM     37  H   UNL     1      -1.623  10.962   6.641  0.00  0.00    +0.222 HD
ENDBRANCH  34  36
BRANCH  34  38
ATOM     38  O   UNL     1       0.955  10.037   6.819  0.00  0.00    -0.286 OA
BRANCH  38  39
ATOM     39  C   UNL     1       1.979   9.055   6.758  0.00  0.00    +0.181 C 
BRANCH  39  40
ATOM     40  C   UNL     1       2.815   8.976   8.081  0.00  0.00    +0.024 C 
ATOM     41  C   UNL     1       3.811   7.815   7.868  0.00  0.00    +0.016 C 
ATOM     42  C   UNL     1       1.885   8.607   9.257  0.00  0.00    +0.016 C 
BRANCH  40  43
ATOM     43  C   UNL     1       3.552  10.333   8.384  0.00  0.00    +0.208 C 
BRANCH  43  45
ATOM     44  N   UNL     1       4.283  11.327  10.555  0.00  0.00    -0.313 N 
ATOM     45  C   UNL     1       4.494  10.313   9.641  0.00  0.00    +0.242 C 
ATOM     46  O   UNL     1       5.393   9.490   9.788  0.00  0.00    -0.273 OA
ATOM     47  H   UNL     1       3.436  11.872  10.403  0.00  0.00    +0.149 HD
BRANCH  44  48
ATOM     48  C   UNL     1       4.948  11.391  11.859  0.00  0.00    +0.113 C 
BRANCH  48  49
ATOM     49  C   UNL     1       6.450  11.706  11.809  0.00  0.00    +0.114 C 
BRANCH  49  51
ATOM     50  N   UNL     1       8.417  11.617  13.272  0.00  0.00    -0.314 N 
ATOM     51  C   UNL     1       7.046  11.804  13.212  0.00  0.00    +0.215 C 
ATOM     52  O   UNL     1       6.367  12.077  14.198  0.00  0.00    -0.276 OA
ATOM     53  H   UNL     1       8.894  11.278  12.445  0.00  0.00    +0.149 HD
BRANCH  50  54
ATOM     54  C   UNL     1       9.161  11.635  14.534  0.00  0.00    +0.115 C 
BRANCH  54  55
ATOM     55  C   UNL     1      10.368  12.593  14.553  0.00  0.00    +0.096 C 
BRANCH  55  56
ATOM     56  S   UNL     1       9.832  14.314  14.299  0.00  0.00    -0.087 S 
BRANCH  56  57
ATOM     57  C   UNL     1      11.356  15.198  14.432  0.00  0.00    +0.189 C 
ATOM     58  O   UNL     1      12.419  14.644  14.660  0.00  0.00    -0.285 OA
BRANCH  57  59
ATOM     59  C   UNL     1      11.161  16.694  14.230  0.00  0.00    +0.083 C 
ATOM     60  C   UNL     1      12.442  17.510  14.266  0.00  0.00    +0.012 C 
ENDBRANCH  57  59
ENDBRANCH  56  57
ENDBRANCH  55  56
ENDBRANCH  54  55
ENDBRANCH  50  54
ENDBRANCH  49  51
ENDBRANCH  48  49
ENDBRANCH  44  48
ENDBRANCH  43  45
BRANCH  43  61
ATOM     61  O   UNL     1       2.635  11.433   8.490  0.00  0.00    -0.382 OA
ATOM     62  H   UNL     1       1.731  11.100   8.328  0.00  0.00    +0.210 HD
ENDBRANCH  43  61
ENDBRANCH  40  43
ENDBRANCH  39  40
ENDBRANCH  38  39
ENDBRANCH  34  38
ENDBRANCH  33  34
ENDBRANCH   1  33
TORSDOF 27
