REMARK  Name = 
REMARK  9 active torsions:
REMARK  status: ('A' for Active; 'I' for Inactive)
REMARK    1  A    between atoms: N_9  and  C_17
REMARK    2  A    between atoms: C_20  and  C_23
REMARK    3  A    between atoms: N_24  and  CA_25
REMARK    4  A    between atoms: CA_25  and  CB_26
REMARK    5  A    between atoms: CA_25  and  C_30
REMARK    6  A    between atoms: CB_26  and  CG_27
REMARK    7  A    between atoms: CG_27  and  CD_28
REMARK    8  A    between atoms: CD_28  and  OE1_33
REMARK    9  A    between atoms: C_30  and  O_31
REMARK                            x       y       z     vdW  Elec       q    Type
REMARK                         _______ _______ _______ _____ _____    ______ ____
ROOT
ATOM      1  C   UNK A   0       3.995  -2.142  -0.399  0.00  0.00    +0.031 A 
ATOM      2  C   UNK A   0       5.271  -2.138   0.196  0.00  0.00    +0.024 A 
ATOM      3  C   UNK A   0       6.283  -3.038  -0.160  0.00  0.00    +0.015 A 
ATOM      4  C   UNK A   0       6.053  -3.997  -1.141  0.00  0.00    +0.037 A 
ATOM      5  C   UNK A   0       4.762  -4.095  -1.676  0.00  0.00    +0.015 A 
ATOM      6  C   UNK A   0       3.753  -3.179  -1.308  0.00  0.00    +0.024 A 
ENDROOT
BRANCH   1  15
ATOM      7  N   UNK A   0       2.316   0.868   0.695  0.00  0.00    -0.301 N 
ATOM      8  C   UNK A   0       1.997   1.826   1.663  0.00  0.00    +0.137 A 
ATOM      9  C   UNK A   0       1.327   0.455  -0.308  0.00  0.00    +0.109 C 
ATOM     10  C   UNK A   0       3.407  -0.063   0.786  0.00  0.00    +0.214 C 
ATOM     11  C   UNK A   0       0.743   2.323   1.821  0.00  0.00    +0.149 A 
ATOM     12  C   UNK A   0       3.043   2.322   2.611  0.00  0.00    +0.276 A 
ATOM     13  C   UNK A   0       1.790  -0.939  -0.777  0.00  0.00    +0.130 C 
ATOM     14  C   UNK A   0      -0.089   0.517   0.315  0.00  0.00    +0.127 C 
ATOM     15  N   UNK A   0       3.059  -1.183  -0.081  0.00  0.00    -0.312 N 
ATOM     16  N   UNK A   0      -0.276   1.812   0.999  0.00  0.00    -0.326 N 
ATOM     17  N   UNK A   0       0.419   3.269   2.767  0.00  0.00    -0.199 NA
ATOM     18  N   UNK A   0       2.631   3.266   3.496  0.00  0.00    -0.294 N 
ATOM     19  O   UNK A   0       4.201   1.911   2.618  0.00  0.00    -0.266 OA
ATOM     20  C   UNK A   0       1.353   3.715   3.541  0.00  0.00    +0.195 A 
ATOM     21  N   UNK A   0       1.094   4.669   4.469  0.00  0.00    -0.329 N 
ATOM     22  H   UNK A   0      -1.179   1.968   1.435  0.00  0.00    +0.148 HD
ATOM     23  H   UNK A   0       3.334   3.633   4.114  0.00  0.00    +0.172 HD
ATOM     24  H   UNK A   0       0.102   4.810   4.625  0.00  0.00    +0.145 HD
ATOM     25  H   UNK A   0       1.649   4.675   5.312  0.00  0.00    +0.145 HD
ENDBRANCH   1  15
BRANCH   4  26
ATOM     26  C   UNK A   0       7.137  -4.914  -1.624  0.00  0.00    +0.245 C 
ATOM     27  N   GLU A   1       8.439  -4.653  -1.197  0.00  0.00    -0.298 N 
ATOM     28  O   UNK A   0       6.877  -5.860  -2.356  0.00  0.00    -0.270 OA
ATOM     29  H   GLU A   1       8.608  -3.685  -0.952  0.00  0.00    +0.150 HD
BRANCH  27  30
ATOM     30  CA  GLU A   1       9.593  -5.319  -1.851  0.00  0.00    +0.182 C 
BRANCH  30  31
ATOM     31  C   GLU A   1       9.606  -6.843  -1.608  0.00  0.00    +0.325 C 
ATOM     32  OXT GLU A   1      10.296  -7.626  -2.249  0.00  0.00    -0.249 OA
BRANCH  31  33
ATOM     33  O   GLU A   1       8.923  -7.221  -0.503  0.00  0.00    -0.479 OA
ATOM     34  H   GLU A   1       8.401  -6.462  -0.172  0.00  0.00    +0.295 HD
ENDBRANCH  31  33
ENDBRANCH  30  31
BRANCH  30  35
ATOM     35  CB  GLU A   1      10.908  -4.711  -1.299  0.00  0.00    +0.045 C 
BRANCH  35  36
ATOM     36  CG  GLU A   1      12.182  -5.412  -1.790  0.00  0.00    +0.123 C 
BRANCH  36  37
ATOM     37  CD  GLU A   1      13.454  -4.768  -1.296  0.00  0.00    +0.305 C 
ATOM     38  OE2 GLU A   1      13.513  -3.763  -0.606  0.00  0.00    -0.251 OA
BRANCH  37  39
ATOM     39  OE1 GLU A   1      14.554  -5.447  -1.703  0.00  0.00    -0.481 OA
ATOM     40  HE1 GLU A   1      14.355  -6.249  -2.225  0.00  0.00    +0.295 HD
ENDBRANCH  37  39
ENDBRANCH  36  37
ENDBRANCH  35  36
ENDBRANCH  30  35
ENDBRANCH  27  30
ENDBRANCH   4  26
TORSDOF 9
