REMARK  Name = 
REMARK  18 active torsions:
REMARK  status: ('A' for Active; 'I' for Inactive)
REMARK    1  A    between atoms: C_1  and  N_2
REMARK    2  A    between atoms: C_4  and  O_9
REMARK    3  A    between atoms: C_7  and  C_13
REMARK    4  A    between atoms: C_8  and  O_14
REMARK    5  A    between atoms: C_13  and  O_16
REMARK    6  A    between atoms: O_16  and  P_18
REMARK    7  A    between atoms: P_18  and  O_19
REMARK    8  A    between atoms: P_18  and  O_20
REMARK    9  A    between atoms: O_19  and  P_22
REMARK   10  A    between atoms: P_22  and  O_23
REMARK   11  A    between atoms: P_22  and  O_24
REMARK   12  A    between atoms: O_23  and  C_26
REMARK   13  A    between atoms: C_27  and  N_36
REMARK   14  A    between atoms: C_29  and  O_32
REMARK   15  A    between atoms: C_30  and  C_33
REMARK   16  A    between atoms: C_31  and  O_34
REMARK   17  A    between atoms: C_33  and  O_35
REMARK   18  A    between atoms: C_37  and  C_39
REMARK                            x       y       z     vdW  Elec       q    Type
REMARK                         _______ _______ _______ _____ _____    ______ ____
ROOT
ATOM      1  P   UNL     1       4.174  -1.005  -3.729  0.00  0.00    +0.483 P 
ATOM      2  O   UNL     1       5.555  -1.354  -3.293  0.00  0.00    -0.227 OA
ENDROOT
BRANCH   1   3
ATOM      3  O   UNL     1       3.102  -2.067  -3.181  0.00  0.00    -0.302 OA
ATOM      4  H   UNL     1       3.319  -2.378  -2.276  0.00  0.00    +0.222 HD
ENDBRANCH   1   3
BRANCH   1   5
ATOM      5  O   UNL     1       3.913  -1.070  -5.350  0.00  0.00    -0.284 OA
BRANCH   5   6
ATOM      6  C   UNL     1       3.814  -2.317  -6.104  0.00  0.00    +0.206 C 
BRANCH   6  10
ATOM      7  C   UNL     1       5.463  -2.695  -9.033  0.00  0.00    +0.255 C 
ATOM      8  O   UNL     1       4.886  -1.615  -8.228  0.00  0.00    -0.346 OA
ATOM      9  C   UNL     1       4.520  -3.906  -8.866  0.00  0.00    +0.195 C 
ATOM     10  C   UNL     1       3.630  -2.039  -7.644  0.00  0.00    +0.178 C 
ATOM     11  C   UNL     1       3.208  -3.198  -8.557  0.00  0.00    +0.178 C 
BRANCH   7  12
ATOM     12  N   UNL     1       6.880  -2.869  -8.673  0.00  0.00    -0.271 N 
ATOM     13  C   UNL     1       7.596  -3.935  -9.218  0.00  0.00    +0.331 A 
ATOM     14  C   UNL     1       7.548  -1.818  -8.065  0.00  0.00    +0.098 A 
ATOM     15  N   UNL     1       8.951  -3.932  -8.978  0.00  0.00    -0.275 N 
ATOM     16  O   UNL     1       7.122  -4.822  -9.906  0.00  0.00    -0.246 OA
ATOM     17  C   UNL     1       8.887  -1.767  -7.971  0.00  0.00    +0.088 A 
ATOM     18  C   UNL     1       9.674  -2.856  -8.559  0.00  0.00    +0.254 A 
ATOM     19  O   UNL     1      10.891  -2.778  -8.681  0.00  0.00    -0.268 OA
ATOM     20  H   UNL     1       9.466  -4.664  -9.433  0.00  0.00    +0.173 HD
ENDBRANCH   7  12
BRANCH  11  21
ATOM     21  O   UNL     1       2.695  -2.693  -9.822  0.00  0.00    -0.386 OA
ATOM     22  H   UNL     1       2.963  -1.761  -9.936  0.00  0.00    +0.210 HD
ENDBRANCH  11  21
BRANCH   9  23
ATOM     23  O   UNL     1       4.371  -4.726 -10.025  0.00  0.00    -0.385 OA
ATOM     24  H   UNL     1       3.872  -4.212 -10.690  0.00  0.00    +0.210 HD
ENDBRANCH   9  23
ENDBRANCH   6  10
ENDBRANCH   5   6
ENDBRANCH   1   5
BRANCH   1  25
ATOM     25  O   UNL     1       3.546   0.439  -3.157  0.00  0.00    -0.186 OA
BRANCH  25  26
ATOM     26  P   UNL     1       1.969   0.338  -3.863  0.00  0.00    +0.486 P 
ATOM     27  O   UNL     1       0.558   0.248  -4.494  0.00  0.00    -0.227 OA
BRANCH  26  28
ATOM     28  O   UNL     1       2.631   1.044  -5.206  0.00  0.00    -0.302 OA
ATOM     29  H   UNL     1       3.030   0.390  -5.810  0.00  0.00    +0.222 HD
ENDBRANCH  26  28
BRANCH  26  30
ATOM     30  O   UNL     1       1.639   1.794  -3.176  0.00  0.00    -0.254 OA
BRANCH  30  31
ATOM     31  C   UNL     1       1.363   1.987  -1.816  0.00  0.00    +0.285 C 
ATOM     32  C   UNL     1      -0.138   1.836  -1.394  0.00  0.00    +0.160 C 
ATOM     33  O   UNL     1       1.773   3.371  -1.506  0.00  0.00    -0.341 OA
ATOM     34  C   UNL     1      -0.983   2.912  -2.120  0.00  0.00    +0.171 C 
ATOM     35  C   UNL     1       1.107   4.331  -2.373  0.00  0.00    +0.178 C 
ATOM     36  C   UNL     1      -0.384   4.326  -2.031  0.00  0.00    +0.176 C 
BRANCH  32  37
ATOM     37  N   UNL     1      -0.842   0.526  -1.497  0.00  0.00    -0.305 N 
ATOM     38  C   UNL     1      -0.337  -0.706  -1.189  0.00  0.00    +0.210 C 
ATOM     39  O   UNL     1       0.876  -0.913  -1.081  0.00  0.00    -0.276 OA
ATOM     40  C   UNL     1      -1.371  -1.808  -1.016  0.00  0.00    +0.109 C 
ATOM     41  H   UNL     1      -1.854   0.622  -1.436  0.00  0.00    +0.149 HD
ENDBRANCH  32  37
BRANCH  34  42
ATOM     42  O   UNL     1      -2.311   2.928  -1.550  0.00  0.00    -0.387 OA
ATOM     43  H   UNL     1      -2.380   3.777  -1.061  0.00  0.00    +0.210 HD
ENDBRANCH  34  42
BRANCH  36  44
ATOM     44  O   UNL     1      -0.621   4.828  -0.699  0.00  0.00    -0.387 OA
ATOM     45  H   UNL     1       0.145   4.579  -0.146  0.00  0.00    +0.210 HD
ENDBRANCH  36  44
BRANCH  35  46
ATOM     46  C   UNL     1       1.695   5.750  -2.216  0.00  0.00    +0.190 C 
BRANCH  46  47
ATOM     47  O   UNL     1       3.045   5.814  -2.669  0.00  0.00    -0.392 OA
ATOM     48  H   UNL     1       3.559   5.204  -2.111  0.00  0.00    +0.210 HD
ENDBRANCH  46  47
ENDBRANCH  35  46
ENDBRANCH  30  31
ENDBRANCH  26  30
ENDBRANCH  25  26
ENDBRANCH   1  25
TORSDOF 17
