REMARK  Name = 
REMARK  7 active torsions:
REMARK  status: ('A' for Active; 'I' for Inactive)
REMARK    1  A    between atoms: CB_1  and  CG_2
REMARK    2  A    between atoms: CB_1  and  CA_3
REMARK    3  A    between atoms: CG_2  and  CD_4
REMARK    4  A    between atoms: CA_3  and  C_5
REMARK    5  A    between atoms: CA_3  and  N_6
REMARK    6  A    between atoms: CD_4  and  NE_7
REMARK    7  A    between atoms: C_5  and  O_8
REMARK                            x       y       z     vdW  Elec       q    Type
REMARK                         _______ _______ _______ _____ _____    ______ ____
ROOT
ATOM      1  CG  ARG A   1       0.407   1.261   0.861  0.00  0.00    +0.023 C 
ENDROOT
BRANCH   1   2
ATOM      2  CB  ARG A   1       0.963   0.141  -0.043  0.00  0.00    +0.031 C 
BRANCH   2   3
ATOM      3  CA  ARG A   1       0.583   0.221  -1.535  0.00  0.00    +0.161 C 
BRANCH   3   4
ATOM      4  N   ARG A   1      -0.871   0.151  -1.741  0.00  0.00    -0.318 NA
ATOM      5  H1  ARG A   1      -1.343  -0.638  -1.309  0.00  0.00    +0.119 HD
ATOM      6  H2  ARG A   1      -1.187   0.401  -2.674  0.00  0.00    +0.119 HD
ENDBRANCH   3   4
BRANCH   3   7
ATOM      7  C   ARG A   1       1.302  -0.909  -2.307  0.00  0.00    +0.322 C 
ATOM      8  OXT ARG A   1       2.509  -1.078  -2.315  0.00  0.00    -0.249 OA
BRANCH   7   9
ATOM      9  O   ARG A   1       0.455  -1.723  -2.981  0.00  0.00    -0.480 OA
ATOM     10  H   ARG A   1      -0.463  -1.425  -2.847  0.00  0.00    +0.295 HD
ENDBRANCH   7   9
ENDBRANCH   3   7
ENDBRANCH   2   3
ENDBRANCH   1   2
BRANCH   1  11
ATOM     11  CD  ARG A   1      -1.114   1.265   0.936  0.00  0.00    +0.115 C 
BRANCH  11  12
ATOM     12  NE  ARG A   1      -1.636   2.168   1.936  0.00  0.00    -0.356 N 
ATOM     13  CZ  ARG A   1      -2.953   2.429   2.074  0.00  0.00    +0.188 C 
ATOM     14  NH1 ARG A   1      -3.221   3.425   2.930  0.00  0.00    -0.370 N 
ATOM     15  NH2 ARG A   1      -3.934   1.831   1.491  0.00  0.00    -0.269 NA
ATOM     16  HE  ARG A   1      -0.986   2.809   2.369  0.00  0.00    +0.162 HD
ATOM     17 HH11 ARG A   1      -2.642   4.245   2.828  0.00  0.00    +0.159 HD
ATOM     18 HH12 ARG A   1      -4.207   3.665   2.865  0.00  0.00    +0.159 HD
ATOM     19  HH2 ARG A   1      -3.570   1.092   0.890  0.00  0.00    +0.190 HD
ENDBRANCH  11  12
ENDBRANCH   1  11
TORSDOF 7
