REMARK  Name = 
REMARK  3 active torsions:
REMARK  status: ('A' for Active; 'I' for Inactive)
REMARK    1  A    between atoms: C_1  and  CA_2
REMARK    2  A    between atoms: C_1  and  O_3
REMARK    3  A    between atoms: CA_2  and  N_5
REMARK                            x       y       z     vdW  Elec       q    Type
REMARK                         _______ _______ _______ _____ _____    ______ ____
ROOT
ATOM      1  C   GLY A   1       1.002   0.089  -0.129  0.00  0.00    +0.319 C 
ATOM      2  OXT GLY A   1       0.594  -0.333  -1.200  0.00  0.00    -0.250 OA
ENDROOT
BRANCH   1   3
ATOM      3  O   GLY A   1       2.210   0.688   0.032  0.00  0.00    -0.480 OA
ATOM      4  H   GLY A   1       2.271   0.922   0.991  0.00  0.00    +0.295 HD
ENDBRANCH   1   3
BRANCH   1   5
ATOM      5  CA  GLY A   1       0.226   0.045   1.184  0.00  0.00    +0.199 C 
BRANCH   5   6
ATOM      6  N   GLY A   1       1.175   0.206   2.317  0.00  0.00    -0.321 NA
ATOM      7  H1  GLY A   1       1.707  -0.667   2.403  0.00  0.00    +0.119 HD
ATOM      8  H2  GLY A   1       0.621   0.244   3.178  0.00  0.00    +0.119 HD
ENDBRANCH   5   6
ENDBRANCH   1   5
TORSDOF 3
