REMARK  Name = 
REMARK  12 active torsions:
REMARK  status: ('A' for Active; 'I' for Inactive)
REMARK    1  A    between atoms: C_1  and  O_3
REMARK    2  A    between atoms: C_2  and  C_6
REMARK    3  A    between atoms: O_3  and  C_7
REMARK    4  A    between atoms: C_4  and  O_9
REMARK    5  A    between atoms: C_6  and  O_11
REMARK    6  A    between atoms: C_8  and  O_14
REMARK    7  A    between atoms: C_10  and  O_15
REMARK    8  A    between atoms: C_13  and  O_18
REMARK    9  A    between atoms: C_16  and  C_20
REMARK   10  A    between atoms: C_17  and  O_21
REMARK   11  A    between atoms: C_19  and  O_22
REMARK   12  A    between atoms: C_20  and  O_23
REMARK                            x       y       z     vdW  Elec       q    Type
REMARK                         _______ _______ _______ _____ _____    ______ ____
ROOT
ATOM      1  O   UNL     1       0.811   0.976  -1.468  0.00  0.00    -0.340 OA
ENDROOT
BRANCH   1   2
ATOM      2  C   UNL     1       0.347   0.743  -0.104  0.00  0.00    +0.183 C 
ATOM      3  C   UNL     1       0.950  -0.529   0.579  0.00  0.00    +0.178 C 
ATOM      4  C   UNL     1      -1.206   0.606  -0.136  0.00  0.00    +0.179 C 
ATOM      5  O   UNL     1       0.419  -1.755   0.060  0.00  0.00    -0.341 OA
ATOM      6  C   UNL     1      -1.678  -0.766  -0.664  0.00  0.00    +0.201 C 
ATOM      7  C   UNL     1      -0.999  -1.898   0.131  0.00  0.00    +0.279 C 
BRANCH   4   8
ATOM      8  O   UNL     1      -1.759   0.773   1.182  0.00  0.00    -0.386 OA
ATOM      9  H   UNL     1      -1.493   1.660   1.494  0.00  0.00    +0.210 HD
ENDBRANCH   4   8
BRANCH   6  10
ATOM     10  O   UNL     1      -1.395  -0.898  -2.061  0.00  0.00    -0.384 OA
ATOM     11  H   UNL     1      -0.429  -1.021  -2.135  0.00  0.00    +0.210 HD
ENDBRANCH   6  10
BRANCH   7  12
ATOM     12  O   UNL     1      -1.455  -2.006   1.470  0.00  0.00    -0.365 OA
ATOM     13  H   UNL     1      -1.887  -1.158   1.695  0.00  0.00    +0.213 HD
ENDBRANCH   7  12
BRANCH   3  14
ATOM     14  C   UNL     1       0.930  -0.486   2.119  0.00  0.00    +0.190 C 
BRANCH  14  15
ATOM     15  O   UNL     1       1.763   0.571   2.584  0.00  0.00    -0.392 OA
ATOM     16  H   UNL     1       2.034   0.338   3.490  0.00  0.00    +0.210 HD
ENDBRANCH  14  15
ENDBRANCH   3  14
ENDBRANCH   1   2
BRANCH   1  17
ATOM     17  C   UNL     1       2.219   1.236  -1.602  0.00  0.00    +0.282 C 
ATOM     18  O   UNL     1       2.697   2.463  -1.051  0.00  0.00    -0.341 OA
ATOM     19  C   UNL     1       2.712   0.991  -3.049  0.00  0.00    +0.201 C 
ATOM     20  C   UNL     1       2.718   3.648  -1.869  0.00  0.00    +0.178 C 
ATOM     21  C   UNL     1       2.568   2.216  -3.953  0.00  0.00    +0.179 C 
ATOM     22  C   UNL     1       3.238   3.422  -3.302  0.00  0.00    +0.177 C 
BRANCH  19  23
ATOM     23  O   UNL     1       4.107   0.616  -3.030  0.00  0.00    -0.384 OA
ATOM     24  H   UNL     1       4.538   1.100  -2.305  0.00  0.00    +0.210 HD
ENDBRANCH  19  23
BRANCH  21  25
ATOM     25  O   UNL     1       1.216   2.582  -4.252  0.00  0.00    -0.386 OA
ATOM     26  H   UNL     1       0.656   1.786  -4.204  0.00  0.00    +0.210 HD
ENDBRANCH  21  25
BRANCH  22  27
ATOM     27  O   UNL     1       3.056   4.578  -4.127  0.00  0.00    -0.386 OA
ATOM     28  H   UNL     1       2.201   4.450  -4.589  0.00  0.00    +0.210 HD
ENDBRANCH  22  27
BRANCH  20  29
ATOM     29  C   UNL     1       1.397   4.425  -1.782  0.00  0.00    +0.190 C 
BRANCH  29  30
ATOM     30  O   UNL     1       1.137   4.836  -0.430  0.00  0.00    -0.392 OA
ATOM     31  H   UNL     1       1.912   5.338  -0.129  0.00  0.00    +0.210 HD
ENDBRANCH  29  30
ENDBRANCH  20  29
ENDBRANCH   1  17
TORSDOF 12
