REMARK  Name = 
REMARK  2 active torsions:
REMARK  status: ('A' for Active; 'I' for Inactive)
REMARK    1  A    between atoms: C_1  and  C_2
REMARK    2  A    between atoms: C_1  and  O_3
REMARK                            x       y       z     vdW  Elec       q    Type
REMARK                         _______ _______ _______ _____ _____    ______ ____
ROOT
ATOM      1  C   UNL     1       1.120   0.065  -0.016  0.00  0.00    +0.369 C 
ATOM      2  O   UNL     1       2.334   0.061  -0.001  0.00  0.00    -0.242 OA
ENDROOT
BRANCH   1   3
ATOM      3  C   UNL     1       0.327   0.307  -1.284  0.00  0.00    +0.341 C 
ATOM      4  O   UNL     1      -0.896   0.297  -1.229  0.00  0.00    -0.289 OA
ENDBRANCH   1   3
BRANCH   1   5
ATOM      5  O   UNL     1       0.305  -0.136   1.034  0.00  0.00    -0.475 OA
ATOM      6  H   UNL     1      -0.633  -0.079   0.736  0.00  0.00    +0.295 HD
ENDBRANCH   1   5
TORSDOF 2
