REMARK  Name = 
REMARK  5 active torsions:
REMARK  status: ('A' for Active; 'I' for Inactive)
REMARK    1  A    between atoms: C_1  and  C_2
REMARK    2  A    between atoms: C_1  and  C_3
REMARK    3  A    between atoms: C_2  and  C_5
REMARK    4  A    between atoms: C_2  and  C_6
REMARK    5  A    between atoms: C_3  and  O_7
REMARK                            x       y       z     vdW  Elec       q    Type
REMARK                         _______ _______ _______ _____ _____    ______ ____
ROOT
ATOM      1  C   UNL     1       0.960  -0.032  -0.150  0.00  0.00    +0.242 C 
ATOM      2  O   UNL     1       2.072  -0.398  -0.522  0.00  0.00    -0.285 OA
ENDROOT
BRANCH   1   3
ATOM      3  C   UNL     1       0.209  -0.550   1.058  0.00  0.00    +0.061 C 
ATOM      4  C   UNL     1      -0.670  -1.736   0.682  0.00  0.00    +0.016 C 
ATOM      5  C   UNL     1       1.195  -0.952   2.156  0.00  0.00    +0.016 C 
ENDBRANCH   1   3
BRANCH   1   6
ATOM      6  C   UNL     1       0.278   1.048  -0.997  0.00  0.00    +0.373 C 
ATOM      7  O   UNL     1      -0.830   1.488  -0.765  0.00  0.00    -0.242 OA
BRANCH   6   8
ATOM      8  O   UNL     1       1.087   1.434  -2.004  0.00  0.00    -0.475 OA
ATOM      9  H   UNL     1       1.928   0.921  -1.954  0.00  0.00    +0.295 HD
ENDBRANCH   6   8
ENDBRANCH   1   6
TORSDOF 3
