REMARK  Name = 
REMARK  3 active torsions:
REMARK  status: ('A' for Active; 'I' for Inactive)
REMARK    1  A    between atoms: C_1  and  C_2
REMARK    2  A    between atoms: C_1  and  O_3
REMARK    3  A    between atoms: C_2  and  C_5
REMARK                            x       y       z     vdW  Elec       q    Type
REMARK                         _______ _______ _______ _____ _____    ______ ____
ROOT
ATOM      1  C   UNL     1       1.067  -0.028   0.062  0.00  0.00    +0.304 C 
ATOM      2  O   UNL     1       2.285   0.059   0.057  0.00  0.00    -0.251 OA
ENDROOT
BRANCH   1   3
ATOM      3  C   UNL     1       0.280  -1.316   0.102  0.00  0.00    +0.117 C 
ATOM      4  C   UNL     1       1.187  -2.534   0.140  0.00  0.00    +0.015 C 
ENDBRANCH   1   3
BRANCH   1   5
ATOM      5  O   UNL     1       0.265   1.062   0.029  0.00  0.00    -0.481 OA
ATOM      6  H   UNL     1      -0.687   0.849   0.037  0.00  0.00    +0.295 HD
ENDBRANCH   1   5
TORSDOF 2
