REMARK  Name = 
REMARK  8 active torsions:
REMARK  status: ('A' for Active; 'I' for Inactive)
REMARK    1  A    between atoms: C_1  and  C_6
REMARK    2  A    between atoms: C_2  and  O_16
REMARK    3  A    between atoms: C_3  and  O_15
REMARK    4  A    between atoms: C_4  and  N_7
REMARK    5  A    between atoms: C_6  and  O_17
REMARK    6  A    between atoms: O_17  and  P_18
REMARK    7  A    between atoms: P_18  and  O_19
REMARK    8  A    between atoms: P_18  and  O_21
REMARK                            x       y       z     vdW  Elec       q    Type
REMARK                         _______ _______ _______ _____ _____    ______ ____
ROOT
ATOM      1  C   UNL     1       1.292  -0.777  -0.313  0.00  0.00    +0.178 C 
ATOM      2  C   UNL     1      -0.231  -0.859  -0.405  0.00  0.00    +0.178 C 
ATOM      3  C   UNL     1      -0.638   0.596  -0.539  0.00  0.00    +0.195 C 
ATOM      4  C   UNL     1       0.402   1.325   0.331  0.00  0.00    +0.255 C 
ATOM      5  O   UNL     1       1.590   0.510   0.265  0.00  0.00    -0.346 OA
ENDROOT
BRANCH   4   6
ATOM      6  N   UNL     1       0.749   2.696  -0.050  0.00  0.00    -0.270 N 
ATOM      7  C   UNL     1       1.681   3.366   0.765  0.00  0.00    +0.352 A 
ATOM      8  C   UNL     1       0.077   3.378  -1.043  0.00  0.00    +0.096 A 
ATOM      9  N   UNL     1       2.034   4.655   0.427  0.00  0.00    -0.178 NA
ATOM     10  O   UNL     1       2.170   2.835   1.758  0.00  0.00    -0.244 OA
ATOM     11  C   UNL     1       0.364   4.642  -1.340  0.00  0.00    +0.061 A 
ATOM     12  C   UNL     1       1.428   5.266  -0.539  0.00  0.00    +0.123 A 
ATOM     13  N   UNL     1       1.802   6.551  -0.814  0.00  0.00    -0.343 N 
ATOM     14  H   UNL     1       2.677   6.813  -0.372  0.00  0.00    +0.144 HD
ATOM     15  H   UNL     1       1.701   6.883  -1.765  0.00  0.00    +0.144 HD
ENDBRANCH   4   6
BRANCH   3  16
ATOM     16  O   UNL     1      -1.983   0.825  -0.125  0.00  0.00    -0.385 OA
ATOM     17  H   UNL     1      -2.183   0.126   0.534  0.00  0.00    +0.210 HD
ENDBRANCH   3  16
BRANCH   2  18
ATOM     18  O   UNL     1      -0.839  -1.376   0.791  0.00  0.00    -0.386 OA
ATOM     19  H   UNL     1      -0.203  -1.291   1.531  0.00  0.00    +0.210 HD
ENDBRANCH   2  18
BRANCH   1  20
ATOM     20  C   UNL     1       2.005  -0.859  -1.669  0.00  0.00    +0.206 C 
BRANCH  20  21
ATOM     21  O   UNL     1       3.427  -0.859  -1.473  0.00  0.00    -0.284 OA
BRANCH  21  22
ATOM     22  P   UNL     1       4.322  -0.974  -2.949  0.00  0.00    +0.472 P 
ATOM     23  O   UNL     1       4.038  -2.474  -3.024  0.00  0.00    -0.228 OA
BRANCH  22  24
ATOM     24  O   UNL     1       5.731  -0.902  -2.144  0.00  0.00    -0.303 OA
ATOM     25  H   UNL     1       5.919  -1.814  -1.844  0.00  0.00    +0.222 HD
ENDBRANCH  22  24
BRANCH  22  26
ATOM     26  O   UNL     1       5.217  -1.089  -4.425  0.00  0.00    -0.303 OA
ATOM     27  H   UNL     1       5.949  -0.447  -4.369  0.00  0.00    +0.222 HD
ENDBRANCH  22  26
ENDBRANCH  21  22
ENDBRANCH  20  21
ENDBRANCH   1  20
TORSDOF 8
