REMARK  Name = 
REMARK  4 active torsions:
REMARK  status: ('A' for Active; 'I' for Inactive)
REMARK    1  A    between atoms: C_1  and  O_4
REMARK    2  A    between atoms: C_2  and  O_6
REMARK    3  A    between atoms: C_3  and  O_8
REMARK    4  A    between atoms: C_5  and  O_10
REMARK                            x       y       z     vdW  Elec       q    Type
REMARK                         _______ _______ _______ _____ _____    ______ ____
ROOT
ATOM      1  C   UNL     1       0.762   1.210  -0.223  0.00  0.00    +0.178 C 
ATOM      2  C   UNL     1       1.472  -0.102   0.158  0.00  0.00    +0.201 C 
ATOM      3  C   UNL     1      -0.701   1.205   0.256  0.00  0.00    +0.171 C 
ATOM      4  C   UNL     1       0.604  -1.327  -0.206  0.00  0.00    +0.279 C 
ATOM      5  C   UNL     1      -1.408  -0.078  -0.193  0.00  0.00    +0.197 C 
ATOM      6  O   UNL     1      -0.715  -1.214   0.328  0.00  0.00    -0.346 OA
ENDROOT
BRANCH   1   7
ATOM      7  O   UNL     1       0.833   1.463  -1.632  0.00  0.00    -0.386 OA
ATOM      8  H   UNL     1       0.473   0.714  -2.134  0.00  0.00    +0.210 HD
ENDBRANCH   1   7
BRANCH   2   9
ATOM      9  O   UNL     1       1.744  -0.155   1.573  0.00  0.00    -0.384 OA
ATOM     10  H   UNL     1       0.933   0.148   2.028  0.00  0.00    +0.210 HD
ENDBRANCH   2   9
BRANCH   3  11
ATOM     11  O   UNL     1      -0.696   1.269   1.696  0.00  0.00    -0.387 OA
ATOM     12  H   UNL     1      -1.346   0.617   2.031  0.00  0.00    +0.210 HD
ENDBRANCH   3  11
BRANCH   4  13
ATOM     13  O   UNL     1       1.199  -2.506   0.311  0.00  0.00    -0.365 OA
ATOM     14  H   UNL     1       1.614  -2.224   1.152  0.00  0.00    +0.213 HD
ENDBRANCH   4  13
TORSDOF 4
