REMARK  Name = 
REMARK  11 active torsions:
REMARK  status: ('A' for Active; 'I' for Inactive)
REMARK    1  A    between atoms: C_9  and  C_13
REMARK    2  A    between atoms: C_13  and  N_14
REMARK    3  A    between atoms: N_14  and  C_15
REMARK    4  A    between atoms: C_18  and  C_21
REMARK    5  A    between atoms: N_22  and  CA_24
REMARK    6  A    between atoms: CA_24  and  CB_25
REMARK    7  A    between atoms: CA_24  and  C_30
REMARK    8  A    between atoms: CB_25  and  CG_26
REMARK    9  A    between atoms: CG_26  and  CD_27
REMARK   10  A    between atoms: CD_27  and  OE1_28
REMARK   11  A    between atoms: C_30  and  OXT_32
REMARK                            x       y       z     vdW  Elec       q    Type
REMARK                         _______ _______ _______ _____ _____    ______ ____
ROOT
ATOM      1  C   UNK A   0       6.437   0.884  -1.370  0.00  0.00    +0.027 A 
ATOM      2  C   UNK A   0       7.293   0.739  -0.278  0.00  0.00    +0.023 A 
ATOM      3  C   UNK A   0       8.667   1.021  -0.398  0.00  0.00    +0.015 A 
ATOM      4  C   UNK A   0       9.218   1.402  -1.628  0.00  0.00    +0.037 A 
ATOM      5  C   UNK A   0       8.394   1.429  -2.754  0.00  0.00    +0.015 A 
ATOM      6  C   UNK A   0       7.023   1.157  -2.619  0.00  0.00    +0.023 A 
ENDROOT
BRANCH   4   7
ATOM      7  C   UNK A   0      10.621   1.916  -1.671  0.00  0.00    +0.245 C 
ATOM      8  N   GLU A   1      11.358   1.665  -2.806  0.00  0.00    -0.298 N 
ATOM      9  O   UNK A   0      11.060   2.571  -0.733  0.00  0.00    -0.270 OA
ATOM     10  H   GLU A   1      10.994   1.022  -3.503  0.00  0.00    +0.150 HD
BRANCH   8  11
ATOM     11  CA  GLU A   1      12.620   2.357  -3.113  0.00  0.00    +0.182 C 
BRANCH  11  12
ATOM     12  C   GLU A   1      12.970   1.979  -4.558  0.00  0.00    +0.325 C 
ATOM     13  O   GLU A   1      13.018   0.823  -4.957  0.00  0.00    -0.249 OA
BRANCH  12  14
ATOM     14  OXT GLU A   1      13.219   3.029  -5.371  0.00  0.00    -0.479 OA
ATOM     15  HXT GLU A   1      13.106   3.912  -4.970  0.00  0.00    +0.295 HD
ENDBRANCH  12  14
ENDBRANCH  11  12
BRANCH  11  16
ATOM     16  CB  GLU A   1      13.796   1.982  -2.185  0.00  0.00    +0.045 C 
BRANCH  16  17
ATOM     17  CG  GLU A   1      15.115   2.628  -2.636  0.00  0.00    +0.123 C 
BRANCH  17  18
ATOM     18  CD  GLU A   1      16.319   2.464  -1.736  0.00  0.00    +0.305 C 
ATOM     19  OE2 GLU A   1      17.208   3.304  -1.682  0.00  0.00    -0.251 OA
BRANCH  18  20
ATOM     20  OE1 GLU A   1      16.418   1.298  -1.077  0.00  0.00    -0.481 OA
ATOM     21  HE1 GLU A   1      15.701   0.655  -1.233  0.00  0.00    +0.295 HD
ENDBRANCH  18  20
ENDBRANCH  17  18
ENDBRANCH  16  17
ENDBRANCH  11  16
ENDBRANCH   8  11
ENDBRANCH   4   7
BRANCH   1  22
ATOM     22  N   UNK A   0       5.059   0.656  -1.332  0.00  0.00    -0.342 N 
ATOM     23  H   UNK A   0       4.621   1.144  -2.111  0.00  0.00    +0.146 HD
BRANCH  22  24
ATOM     24  C   UNK A   0       4.269   0.885  -0.104  0.00  0.00    +0.125 C 
BRANCH  24  33
ATOM     25  N   UNK A   0      -1.003   1.330  -3.267  0.00  0.00    -0.294 N 
ATOM     26  C   UNK A   0      -1.805   0.926  -2.249  0.00  0.00    +0.195 A 
ATOM     27  N   UNK A   0      -1.377   0.729  -1.043  0.00  0.00    -0.199 NA
ATOM     28  C   UNK A   0      -0.036   0.872  -0.788  0.00  0.00    +0.149 A 
ATOM     29  C   UNK A   0       0.856   1.280  -1.728  0.00  0.00    +0.133 A 
ATOM     30  C   UNK A   0       0.336   1.518  -3.102  0.00  0.00    +0.276 A 
ATOM     31  N   UNK A   0       0.457   0.522   0.477  0.00  0.00    -0.326 N 
ATOM     32  C   UNK A   0       1.857   0.782   0.850  0.00  0.00    +0.126 C 
ATOM     33  C   UNK A   0       2.779   0.565  -0.388  0.00  0.00    +0.105 C 
ATOM     34  N   UNK A   0       2.245   1.376  -1.513  0.00  0.00    -0.331 N 
ATOM     35  O   UNK A   0       1.082   1.809  -4.035  0.00  0.00    -0.266 OA
ATOM     36  N   UNK A   0      -3.109   0.727  -2.557  0.00  0.00    -0.329 N 
ATOM     37  H   UNK A   0      -1.356   1.424  -4.203  0.00  0.00    +0.172 HD
ATOM     38  H   UNK A   0      -0.258   0.623   1.188  0.00  0.00    +0.148 HD
ATOM     39  H   UNK A   0       2.716   1.256  -2.408  0.00  0.00    +0.147 HD
ATOM     40  H   UNK A   0      -3.519   1.295  -3.286  0.00  0.00    +0.145 HD
ATOM     41  H   UNK A   0      -3.694   0.634  -1.733  0.00  0.00    +0.145 HD
ENDBRANCH  24  33
ENDBRANCH  22  24
ENDBRANCH   1  22
TORSDOF 11
