REMARK  Name = 
REMARK  6 active torsions:
REMARK  status: ('A' for Active; 'I' for Inactive)
REMARK    1  A    between atoms: C_1  and  C_2
REMARK    2  A    between atoms: C_1  and  C_3
REMARK    3  A    between atoms: C_2  and  C_5
REMARK    4  A    between atoms: C_3  and  O_6
REMARK    5  A    between atoms: C_5  and  C_8
REMARK    6  A    between atoms: C_8  and  O_10
REMARK                            x       y       z     vdW  Elec       q    Type
REMARK                         _______ _______ _______ _____ _____    ______ ____
ROOT
ATOM      1  C   UNL     1       1.054  -0.031  -0.064  0.00  0.00    +0.240 C 
ATOM      2  O   UNL     1       2.133  -0.024  -0.649  0.00  0.00    -0.285 OA
ENDROOT
BRANCH   1   3
ATOM      3  C   UNL     1       0.370   1.313   0.182  0.00  0.00    +0.373 C 
ATOM      4  O   UNL     1      -0.751   1.419   0.638  0.00  0.00    -0.242 OA
BRANCH   3   5
ATOM      5  O   UNL     1       1.159   2.326  -0.220  0.00  0.00    -0.475 OA
ATOM      6  H   UNL     1       2.011   1.958  -0.552  0.00  0.00    +0.295 HD
ENDBRANCH   3   5
ENDBRANCH   1   3
BRANCH   1   7
ATOM      7  C   UNL     1       0.308  -1.270   0.368  0.00  0.00    +0.098 C 
BRANCH   7   8
ATOM      8  C   UNL     1       1.264  -2.406   0.721  0.00  0.00    +0.128 C 
BRANCH   8   9
ATOM      9  C   UNL     1       2.126  -2.043   1.908  0.00  0.00    +0.305 C 
ATOM     10  O   UNL     1       2.089  -0.969   2.486  0.00  0.00    -0.251 OA
BRANCH   9  11
ATOM     11  O   UNL     1       2.955  -3.042   2.278  0.00  0.00    -0.481 OA
ATOM     12  H   UNL     1       2.891  -3.844   1.725  0.00  0.00    +0.295 HD
ENDBRANCH   9  11
ENDBRANCH   8   9
ENDBRANCH   7   8
ENDBRANCH   1   7
TORSDOF 6
