REMARK  Name = 
REMARK  1 active torsions:
REMARK  status: ('A' for Active; 'I' for Inactive)
REMARK    1  A    between atoms: C_1  and  O_2
REMARK                            x       y       z     vdW  Elec       q    Type
REMARK                         _______ _______ _______ _____ _____    ______ ____
ROOT
ATOM      1  C   UNL     1       1.089   0.053   0.010  0.00  0.00    +0.189 C 
ATOM      2  O   UNL     1       2.505   0.063   0.013  0.00  0.00    -0.398 OA
ATOM      3  H   UNL     1       2.798  -0.839  -0.200  0.00  0.00    +0.209 HD
ENDROOT
TORSDOF 0
