REMARK  Name = 
REMARK  5 active torsions:
REMARK  status: ('A' for Active; 'I' for Inactive)
REMARK    1  A    between atoms: CA_1  and  CB_2
REMARK    2  A    between atoms: CA_1  and  C_6
REMARK    3  A    between atoms: CA_1  and  N_9
REMARK    4  A    between atoms: CB_2  and  CG_3
REMARK    5  A    between atoms: C_6  and  O_7
REMARK                            x       y       z     vdW  Elec       q    Type
REMARK                         _______ _______ _______ _____ _____    ______ ____
ROOT
ATOM      1  CA  ASN A   1       1.104  -0.118   0.020  0.00  0.00    +0.169 C 
ENDROOT
BRANCH   1   2
ATOM      2  N   ASN A   1       2.587  -0.118   0.127  0.00  0.00    -0.318 NA
ATOM      3  H1  ASN A   1       3.012  -0.979  -0.215  0.00  0.00    +0.119 HD
ATOM      4  H2  ASN A   1       2.910   0.145   1.058  0.00  0.00    +0.119 HD
ENDBRANCH   1   2
BRANCH   1   5
ATOM      5  C   ASN A   1       0.446  -1.101   1.002  0.00  0.00    +0.322 C 
ATOM      6  OXT ASN A   1      -0.762  -1.215   1.148  0.00  0.00    -0.249 OA
BRANCH   5   7
ATOM      7  O   ASN A   1       1.322  -1.859   1.703  0.00  0.00    -0.480 OA
ATOM      8  H   ASN A   1       2.244  -1.660   1.461  0.00  0.00    +0.295 HD
ENDBRANCH   5   7
ENDBRANCH   1   5
BRANCH   1   9
ATOM      9  CB  ASN A   1       0.634  -0.461  -1.396  0.00  0.00    +0.125 C 
BRANCH   9  10
ATOM     10  CG  ASN A   1       1.069   0.471  -2.508  0.00  0.00    +0.213 C 
ATOM     11  ND2 ASN A   1       1.958   1.453  -2.203  0.00  0.00    -0.329 N 
ATOM     12  OD1 ASN A   1       0.666   0.342  -3.661  0.00  0.00    -0.276 OA
ATOM     13 HD21 ASN A   1       2.552   1.348  -1.384  0.00  0.00    +0.145 HD
ATOM     14 HD22 ASN A   1       2.329   1.980  -2.983  0.00  0.00    +0.145 HD
ENDBRANCH   9  10
ENDBRANCH   1   9
TORSDOF 5
