REMARK  Name = 
REMARK  14 active torsions:
REMARK  status: ('A' for Active; 'I' for Inactive)
REMARK    1  A    between atoms: C_1  and  N_2
REMARK    2  A    between atoms: C_4  and  O_9
REMARK    3  A    between atoms: C_7  and  C_13
REMARK    4  A    between atoms: C_8  and  O_14
REMARK    5  A    between atoms: C_13  and  O_16
REMARK    6  A    between atoms: O_16  and  P_18
REMARK    7  A    between atoms: P_18  and  O_19
REMARK    8  A    between atoms: P_18  and  O_20
REMARK    9  A    between atoms: O_19  and  P_22
REMARK   10  A    between atoms: P_22  and  O_23
REMARK   11  A    between atoms: P_22  and  O_24
REMARK   12  A    between atoms: O_23  and  P_26
REMARK   13  A    between atoms: P_26  and  O_27
REMARK   14  A    between atoms: P_26  and  O_28
REMARK                            x       y       z     vdW  Elec       q    Type
REMARK                         _______ _______ _______ _____ _____    ______ ____
ROOT
ATOM      1  C   UNL     1       0.509   1.274   0.318  0.00  0.00    +0.255 C 
ATOM      2  O   UNL     1       1.675   0.429   0.244  0.00  0.00    -0.346 OA
ATOM      3  C   UNL     1      -0.588   0.623  -0.534  0.00  0.00    +0.195 C 
ATOM      4  C   UNL     1       1.296  -0.839  -0.349  0.00  0.00    +0.178 C 
ATOM      5  C   UNL     1      -0.226  -0.849  -0.425  0.00  0.00    +0.178 C 
ENDROOT
BRANCH   1   6
ATOM      6  N   UNL     1       0.863   2.641  -0.055  0.00  0.00    -0.271 N 
ATOM      7  C   UNL     1       1.368   2.894  -1.322  0.00  0.00    +0.331 A 
ATOM      8  C   UNL     1       0.642   3.667   0.848  0.00  0.00    +0.098 A 
ATOM      9  N   UNL     1       1.646   4.206  -1.598  0.00  0.00    -0.275 N 
ATOM     10  O   UNL     1       1.555   2.039  -2.183  0.00  0.00    -0.246 OA
ATOM     11  C   UNL     1       0.894   4.943   0.548  0.00  0.00    +0.088 A 
ATOM     12  C   UNL     1       1.418   5.268  -0.782  0.00  0.00    +0.254 A 
ATOM     13  O   UNL     1       1.612   6.429  -1.128  0.00  0.00    -0.268 OA
ATOM     14  H   UNL     1       1.993   4.402  -2.527  0.00  0.00    +0.173 HD
ENDBRANCH   1   6
BRANCH   3  15
ATOM     15  O   UNL     1      -1.902   0.875  -0.029  0.00  0.00    -0.385 OA
ATOM     16  H   UNL     1      -2.134   0.100   0.525  0.00  0.00    +0.210 HD
ENDBRANCH   3  15
BRANCH   5  17
ATOM     17  O   UNL     1      -0.802  -1.362   0.795  0.00  0.00    -0.386 OA
ATOM     18  H   UNL     1      -0.168  -1.229   1.526  0.00  0.00    +0.210 HD
ENDBRANCH   5  17
BRANCH   4  19
ATOM     19  C   UNL     1       1.994  -1.033  -1.699  0.00  0.00    +0.206 C 
BRANCH  19  20
ATOM     20  O   UNL     1       3.382  -1.136  -1.428  0.00  0.00    -0.284 OA
BRANCH  20  21
ATOM     21  P   UNL     1       4.451  -0.993  -2.603  0.00  0.00    +0.483 P 
ATOM     22  O   UNL     1       3.966  -0.955  -4.010  0.00  0.00    -0.227 OA
BRANCH  21  23
ATOM     23  O   UNL     1       5.357  -2.287  -2.333  0.00  0.00    -0.302 OA
ATOM     24  H   UNL     1       4.982  -3.079  -2.760  0.00  0.00    +0.222 HD
ENDBRANCH  21  23
BRANCH  21  25
ATOM     25  O   UNL     1       5.391   0.180  -2.116  0.00  0.00    -0.186 OA
BRANCH  25  26
ATOM     26  P   UNL     1       6.066   1.250  -3.064  0.00  0.00    +0.492 P 
ATOM     27  O   UNL     1       5.145   2.177  -3.778  0.00  0.00    -0.226 OA
BRANCH  26  28
ATOM     28  O   UNL     1       7.026   0.387  -4.012  0.00  0.00    -0.302 OA
ATOM     29  H   UNL     1       6.567   0.002  -4.782  0.00  0.00    +0.222 HD
ENDBRANCH  26  28
BRANCH  26  30
ATOM     30  O   UNL     1       7.087   1.966  -2.069  0.00  0.00    -0.186 OA
BRANCH  30  31
ATOM     31  P   UNL     1       6.385   2.906  -0.797  0.00  0.00    +0.481 P 
ATOM     32  O   UNL     1       5.757   3.747   0.342  0.00  0.00    -0.227 OA
BRANCH  31  33
ATOM     33  O   UNL     1       7.018   1.760   0.197  0.00  0.00    -0.302 OA
ATOM     34  H   UNL     1       6.499   0.936   0.193  0.00  0.00    +0.222 HD
ENDBRANCH  31  33
BRANCH  31  35
ATOM     35  O   UNL     1       7.772   3.775  -0.840  0.00  0.00    -0.302 OA
ATOM     36  H   UNL     1       8.199   3.646   0.027  0.00  0.00    +0.222 HD
ENDBRANCH  31  35
ENDBRANCH  30  31
ENDBRANCH  26  30
ENDBRANCH  25  26
ENDBRANCH  21  25
ENDBRANCH  20  21
ENDBRANCH  19  20
ENDBRANCH   4  19
TORSDOF 14
