REMARK  Name = 
REMARK  8 active torsions:
REMARK  status: ('A' for Active; 'I' for Inactive)
REMARK    1  A    between atoms: CA_1  and  CB_2
REMARK    2  A    between atoms: CA_1  and  C_3
REMARK    3  A    between atoms: CA_1  and  N_4
REMARK    4  A    between atoms: CB_2  and  CG_5
REMARK    5  A    between atoms: C_3  and  O_6
REMARK    6  A    between atoms: CG_5  and  CD_8
REMARK    7  A    between atoms: CD_8  and  CE_9
REMARK    8  A    between atoms: CE_9  and  NZ_10
REMARK                            x       y       z     vdW  Elec       q    Type
REMARK                         _______ _______ _______ _____ _____    ______ ____
ROOT
ATOM      1  CA  LYS A   1       1.060  -0.325  -0.067  0.00  0.00    +0.161 C 
ENDROOT
BRANCH   1   2
ATOM      2  N   LYS A   1       2.521  -0.642  -0.043  0.00  0.00    -0.318 NA
ATOM      3  H1  LYS A   1       3.003  -0.101  -0.764  0.00  0.00    +0.119 HD
ATOM      4  H2  LYS A   1       2.903  -0.305   0.846  0.00  0.00    +0.119 HD
ENDBRANCH   1   2
BRANCH   1   5
ATOM      5  C   LYS A   1       0.320  -1.659  -0.308  0.00  0.00    +0.322 C 
ATOM      6  OXT LYS A   1      -0.894  -1.800  -0.359  0.00  0.00    -0.249 OA
BRANCH   5   7
ATOM      7  O   LYS A   1       1.200  -2.687  -0.454  0.00  0.00    -0.480 OA
ATOM      8  H   LYS A   1       2.094  -2.266  -0.354  0.00  0.00    +0.295 HD
ENDBRANCH   5   7
ENDBRANCH   1   5
BRANCH   1   9
ATOM      9  CB  LYS A   1       0.636   0.693  -1.142  0.00  0.00    +0.030 C 
BRANCH   9  10
ATOM     10  CG  LYS A   1       1.055   2.157  -0.920  0.00  0.00    +0.003 C 
BRANCH  10  11
ATOM     11  CD  LYS A   1       2.566   2.383  -0.957  0.00  0.00    +0.015 C 
BRANCH  11  12
ATOM     12  CE  LYS A   1       2.959   3.851  -0.847  0.00  0.00    +0.077 C 
BRANCH  12  13
ATOM     13  NZ  LYS A   1       4.416   3.937  -0.842  0.00  0.00    -0.330 NA
ATOM     14  HZ1 LYS A   1       4.794   3.413  -0.053  0.00  0.00    +0.118 HD
ATOM     15  HZ2 LYS A   1       4.701   4.905  -0.703  0.00  0.00    +0.118 HD
ENDBRANCH  12  13
ENDBRANCH  11  12
ENDBRANCH  10  11
ENDBRANCH   9  10
ENDBRANCH   1   9
TORSDOF 8
