REMARK  Name = 
REMARK  11 active torsions:
REMARK  status: ('A' for Active; 'I' for Inactive)
REMARK    1  A    between atoms: C_1  and  N_2
REMARK    2  A    between atoms: C_4  and  O_9
REMARK    3  A    between atoms: C_7  and  C_13
REMARK    4  A    between atoms: C_8  and  O_14
REMARK    5  A    between atoms: C_13  and  O_16
REMARK    6  A    between atoms: O_16  and  P_18
REMARK    7  A    between atoms: P_18  and  O_19
REMARK    8  A    between atoms: P_18  and  O_20
REMARK    9  A    between atoms: O_19  and  P_22
REMARK   10  A    between atoms: P_22  and  O_23
REMARK   11  A    between atoms: P_22  and  O_24
REMARK                            x       y       z     vdW  Elec       q    Type
REMARK                         _______ _______ _______ _____ _____    ______ ____
ROOT
ATOM      1  C   UNL     1       0.460   1.302   0.410  0.00  0.00    +0.255 C 
ATOM      2  O   UNL     1       1.661   0.507   0.347  0.00  0.00    -0.346 OA
ATOM      3  C   UNL     1      -0.577   0.617  -0.489  0.00  0.00    +0.195 C 
ATOM      4  C   UNL     1       1.347  -0.773  -0.240  0.00  0.00    +0.178 C 
ATOM      5  C   UNL     1      -0.179  -0.843  -0.343  0.00  0.00    +0.178 C 
ENDROOT
BRANCH   1   6
ATOM      6  N   UNL     1       0.797   2.673   0.035  0.00  0.00    -0.271 N 
ATOM      7  C   UNL     1       0.574   3.666   0.979  0.00  0.00    +0.331 A 
ATOM      8  C   UNL     1       1.370   2.953  -1.191  0.00  0.00    +0.098 A 
ATOM      9  N   UNL     1       0.961   4.930   0.608  0.00  0.00    -0.275 N 
ATOM     10  O   UNL     1       0.090   3.479   2.092  0.00  0.00    -0.246 OA
ATOM     11  C   UNL     1       1.753   4.187  -1.533  0.00  0.00    +0.088 A 
ATOM     12  C   UNL     1       1.557   5.276  -0.570  0.00  0.00    +0.254 A 
ATOM     13  O   UNL     1       1.921   6.414  -0.831  0.00  0.00    -0.268 OA
ATOM     14  H   UNL     1       0.830   5.658   1.291  0.00  0.00    +0.173 HD
ENDBRANCH   1   6
BRANCH   3  15
ATOM     15  O   UNL     1      -1.924   0.844  -0.089  0.00  0.00    -0.385 OA
ATOM     16  H   UNL     1      -2.126   0.170   0.593  0.00  0.00    +0.210 HD
ENDBRANCH   3  15
BRANCH   5  17
ATOM     17  O   UNL     1      -0.777  -1.358   0.860  0.00  0.00    -0.386 OA
ATOM     18  H   UNL     1      -0.161  -1.238   1.605  0.00  0.00    +0.210 HD
ENDBRANCH   5  17
BRANCH   4  19
ATOM     19  C   UNL     1       2.030  -0.875  -1.604  0.00  0.00    +0.206 C 
BRANCH  19  20
ATOM     20  O   UNL     1       3.457  -0.853  -1.461  0.00  0.00    -0.284 OA
BRANCH  20  21
ATOM     21  P   UNL     1       4.350  -0.933  -2.941  0.00  0.00    +0.483 P 
ATOM     22  O   UNL     1       5.150  -1.004  -4.265  0.00  0.00    -0.227 OA
BRANCH  21  23
ATOM     23  O   UNL     1       3.435  -2.225  -3.380  0.00  0.00    -0.302 OA
ATOM     24  H   UNL     1       3.673  -2.426  -4.308  0.00  0.00    +0.222 HD
ENDBRANCH  21  23
BRANCH  21  25
ATOM     25  O   UNL     1       5.496  -1.730  -2.089  0.00  0.00    -0.186 OA
BRANCH  25  26
ATOM     26  P   UNL     1       6.890  -0.993  -1.885  0.00  0.00    +0.481 P 
ATOM     27  O   UNL     1       6.882   0.495  -1.962  0.00  0.00    -0.227 OA
BRANCH  26  28
ATOM     28  O   UNL     1       7.385  -1.513  -0.455  0.00  0.00    -0.302 OA
ATOM     29  H   UNL     1       7.048  -0.935   0.254  0.00  0.00    +0.222 HD
ENDBRANCH  26  28
BRANCH  26  30
ATOM     30  O   UNL     1       7.921  -1.757  -2.832  0.00  0.00    -0.302 OA
ATOM     31  H   UNL     1       7.973  -2.702  -2.607  0.00  0.00    +0.222 HD
ENDBRANCH  26  30
ENDBRANCH  25  26
ENDBRANCH  21  25
ENDBRANCH  20  21
ENDBRANCH  19  20
ENDBRANCH   4  19
TORSDOF 11
