REMARK  Name = 
REMARK  7 active torsions:
REMARK  status: ('A' for Active; 'I' for Inactive)
REMARK    1  A    between atoms: O_1  and  C_2
REMARK    2  A    between atoms: C_2  and  C_3
REMARK    3  A    between atoms: C_3  and  C_4
REMARK    4  A    between atoms: C_4  and  O_5
REMARK    5  A    between atoms: O_5  and  P_6
REMARK    6  A    between atoms: P_6  and  O_7
REMARK    7  A    between atoms: P_6  and  O_8
REMARK                            x       y       z     vdW  Elec       q    Type
REMARK                         _______ _______ _______ _____ _____    ______ ____
ROOT
ATOM      1  O   UNL     1       0.548   1.570  -1.422  0.00  0.00    -0.279 OA
ENDROOT
BRANCH   1   2
ATOM      2  P   UNL     1      -0.577   2.515  -2.335  0.00  0.00    +0.473 P 
ATOM      3  O   UNL     1      -1.583   3.362  -3.152  0.00  0.00    -0.228 OA
BRANCH   2   4
ATOM      4  O   UNL     1      -1.704   1.806  -1.380  0.00  0.00    -0.303 OA
ATOM      5  H   UNL     1      -1.757   0.850  -1.553  0.00  0.00    +0.222 HD
ENDBRANCH   2   4
BRANCH   2   6
ATOM      6  O   UNL     1      -0.245   3.687  -1.240  0.00  0.00    -0.303 OA
ATOM      7  H   UNL     1      -0.950   3.619  -0.568  0.00  0.00    +0.222 HD
ENDBRANCH   2   6
ENDBRANCH   1   2
BRANCH   1   8
ATOM      8  C   UNL     1       1.899   1.798  -1.789  0.00  0.00    +0.249 C 
BRANCH   8   9
ATOM      9  C   UNL     1       2.855   0.894  -1.017  0.00  0.00    +0.184 C 
ATOM     10  O   UNL     1       2.463   0.030  -0.229  0.00  0.00    -0.292 OA
BRANCH   9  11
ATOM     11  C   UNL     1       4.346   1.102  -1.252  0.00  0.00    +0.232 C 
BRANCH  11  12
ATOM     12  O   UNL     1       4.652   1.920  -2.361  0.00  0.00    -0.387 OA
ATOM     13  H   UNL     1       5.627   1.948  -2.439  0.00  0.00    +0.210 HD
ENDBRANCH  11  12
ENDBRANCH   9  11
ENDBRANCH   8   9
ENDBRANCH   1   8
TORSDOF 7
