REMARK  Name = 
REMARK  6 active torsions:
REMARK  status: ('A' for Active; 'I' for Inactive)
REMARK    1  A    between atoms: C_1  and  N_2
REMARK    2  A    between atoms: N_2  and  C_3
REMARK    3  A    between atoms: N_2  and  C_6
REMARK    4  A    between atoms: N_2  and  C_7
REMARK    5  A    between atoms: C_3  and  C_4
REMARK    6  A    between atoms: C_4  and  O_5
REMARK                            x       y       z     vdW  Elec       q    Type
REMARK                         _______ _______ _______ _____ _____    ______ ____
ROOT
ATOM      1  C   UNL     1       0.820   0.086   0.049  0.00  0.00    -0.093 C 
ATOM      2  N   UNL     1       2.340   0.033   0.049  0.00  0.00    +0.376 N 
ATOM      3  C   UNL     1       2.876   1.298  -0.620  0.00  0.00    -0.093 C 
ATOM      4  C   UNL     1       2.840   0.012   1.492  0.00  0.00    -0.093 C 
ENDROOT
BRANCH   2   5
ATOM      5  C   UNL     1       2.862  -1.185  -0.758  0.00  0.00    -0.048 C 
BRANCH   5   6
ATOM      6  C   UNL     1       2.394  -2.556  -0.244  0.00  0.00    +0.138 C 
BRANCH   6   7
ATOM      7  O   UNL     1       2.866  -2.808   1.073  0.00  0.00    -0.397 OA
ATOM      8  H   UNL     1       3.738  -3.245   1.011  0.00  0.00    +0.209 HD
ENDBRANCH   6   7
ENDBRANCH   5   6
ENDBRANCH   2   5
TORSDOF 3
