REMARK  Name = 
REMARK  7 active torsions:
REMARK  status: ('A' for Active; 'I' for Inactive)
REMARK    1  A    between atoms: C_1  and  C_2
REMARK    2  A    between atoms: C_1  and  C_5
REMARK    3  A    between atoms: C_2  and  C_6
REMARK    4  A    between atoms: C_5  and  O_9
REMARK    5  A    between atoms: C_6  and  C_11
REMARK    6  A    between atoms: C_11  and  O_14
REMARK    7  A    between atoms: C_13  and  O_16
REMARK                            x       y       z     vdW  Elec       q    Type
REMARK                         _______ _______ _______ _____ _____    ______ ____
ROOT
ATOM      1  C   UNL     1       1.361  -0.342   0.044  0.00  0.00    +0.111 C 
ATOM      2  C   UNL     1       0.782   1.065  -0.149  0.00  0.00    -0.006 C 
ATOM      3  C   UNL     1       0.257  -1.394   0.068  0.00  0.00    -0.006 C 
ATOM      4  C   UNL     1      -0.535   1.339  -0.109  0.00  0.00    +0.005 C 
ATOM      5  C   UNL     1      -1.055  -1.098   0.095  0.00  0.00    +0.005 C 
ATOM      6  C   UNL     1      -1.597   0.301   0.110  0.00  0.00    +0.160 C 
ENDROOT
BRANCH   1   7
ATOM      7  C   UNL     1       2.292  -0.600  -1.166  0.00  0.00    +0.319 C 
ATOM      8  O   UNL     1       3.507  -0.720  -1.085  0.00  0.00    -0.250 OA
BRANCH   7   9
ATOM      9  O   UNL     1       1.652  -0.628  -2.362  0.00  0.00    -0.480 OA
ATOM     10  H   UNL     1       0.690  -0.486  -2.278  0.00  0.00    +0.295 HD
ENDBRANCH   7   9
ENDBRANCH   1   7
BRANCH   6  11
ATOM     11  O   UNL     1      -2.543   0.405  -0.938  0.00  0.00    -0.384 OA
ATOM     12  H   UNL     1      -2.057   0.416  -1.778  0.00  0.00    +0.211 HD
ENDBRANCH   6  11
BRANCH   1  13
ATOM     13  C   UNL     1       2.156  -0.303   1.363  0.00  0.00    +0.113 C 
BRANCH  13  14
ATOM     14  C   UNL     1       2.822  -1.592   1.778  0.00  0.00    +0.241 C 
ATOM     15  O   UNL     1       2.785  -2.668   1.192  0.00  0.00    -0.285 OA
BRANCH  14  16
ATOM     16  C   UNL     1       3.575  -1.546   3.108  0.00  0.00    +0.373 C 
ATOM     17  O   UNL     1       3.631  -0.552   3.804  0.00  0.00    -0.242 OA
BRANCH  16  18
ATOM     18  O   UNL     1       4.113  -2.744   3.396  0.00  0.00    -0.475 OA
ATOM     19  H   UNL     1       3.919  -3.371   2.660  0.00  0.00    +0.295 HD
ENDBRANCH  16  18
ENDBRANCH  14  16
ENDBRANCH  13  14
ENDBRANCH   1  13
TORSDOF 7
