REMARK  Name = 
REMARK  4 active torsions:
REMARK  status: ('A' for Active; 'I' for Inactive)
REMARK    1  A    between atoms: C_1  and  C_2
REMARK    2  A    between atoms: C_1  and  C_3
REMARK    3  A    between atoms: C_1  and  O_4
REMARK    4  A    between atoms: C_2  and  O_6
REMARK                            x       y       z     vdW  Elec       q    Type
REMARK                         _______ _______ _______ _____ _____    ______ ____
ROOT
ATOM      1  C   UNL     1       0.966  -0.003   0.151  0.00  0.00    +0.219 C 
ATOM      2  C   UNL     1       0.610   1.367  -0.398  0.00  0.00    +0.049 C 
ENDROOT
BRANCH   1   3
ATOM      3  C   UNL     1       0.404  -0.228   1.556  0.00  0.00    +0.333 C 
ATOM      4  O   UNL     1      -0.658   0.200   1.978  0.00  0.00    -0.248 OA
BRANCH   3   5
ATOM      5  O   UNL     1       1.245  -0.997   2.298  0.00  0.00    -0.479 OA
ATOM      6  H   UNL     1       2.034  -1.212   1.746  0.00  0.00    +0.295 HD
ENDBRANCH   3   5
ENDBRANCH   1   3
BRANCH   1   7
ATOM      7  O   UNL     1       2.393  -0.161   0.205  0.00  0.00    -0.381 OA
ATOM      8  H   UNL     1       2.767   0.687   0.513  0.00  0.00    +0.210 HD
ENDBRANCH   1   7
TORSDOF 3
