REMARK  Name = 
REMARK  18 active torsions:
REMARK  status: ('A' for Active; 'I' for Inactive)
REMARK    1  A    between atoms: C_1  and  N_2
REMARK    2  A    between atoms: C_4  and  O_9
REMARK    3  A    between atoms: C_7  and  C_13
REMARK    4  A    between atoms: C_8  and  O_14
REMARK    5  A    between atoms: C_13  and  O_16
REMARK    6  A    between atoms: O_16  and  P_18
REMARK    7  A    between atoms: P_18  and  O_19
REMARK    8  A    between atoms: P_18  and  O_20
REMARK    9  A    between atoms: O_19  and  P_22
REMARK   10  A    between atoms: P_22  and  O_23
REMARK   11  A    between atoms: P_22  and  O_24
REMARK   12  A    between atoms: O_23  and  C_26
REMARK   13  A    between atoms: C_27  and  N_36
REMARK   14  A    between atoms: C_29  and  O_32
REMARK   15  A    between atoms: C_30  and  C_33
REMARK   16  A    between atoms: C_31  and  O_34
REMARK   17  A    between atoms: C_33  and  O_35
REMARK   18  A    between atoms: C_37  and  C_39
REMARK                            x       y       z     vdW  Elec       q    Type
REMARK                         _______ _______ _______ _____ _____    ______ ____
ROOT
ATOM      1  P   UNL     1       1.782  -1.715  -4.418  0.00  0.00    +0.483 P 
ATOM      2  O   UNL     1       1.882  -1.353  -5.860  0.00  0.00    -0.227 OA
ENDROOT
BRANCH   1   3
ATOM      3  O   UNL     1       0.294  -1.456  -3.864  0.00  0.00    -0.302 OA
ATOM      4  H   UNL     1      -0.087  -0.628  -4.215  0.00  0.00    +0.222 HD
ENDBRANCH   1   3
BRANCH   1   5
ATOM      5  O   UNL     1       2.545  -0.727  -3.382  0.00  0.00    -0.284 OA
BRANCH   5   6
ATOM      6  C   UNL     1       3.821  -0.086  -3.555  0.00  0.00    +0.206 C 
BRANCH   6  10
ATOM      7  C   UNL     1       3.433   3.620  -3.588  0.00  0.00    +0.255 C 
ATOM      8  O   UNL     1       2.974   2.270  -3.286  0.00  0.00    -0.346 OA
ATOM      9  C   UNL     1       4.970   3.525  -3.535  0.00  0.00    +0.195 C 
ATOM     10  C   UNL     1       3.824   1.394  -4.058  0.00  0.00    +0.178 C 
ATOM     11  C   UNL     1       5.220   2.068  -3.984  0.00  0.00    +0.178 C 
BRANCH   7  12
ATOM     12  N   UNL     1       2.794   4.614  -2.710  0.00  0.00    -0.271 N 
ATOM     13  C   UNL     1       2.723   5.930  -3.175  0.00  0.00    +0.331 A 
ATOM     14  C   UNL     1       2.137   4.232  -1.555  0.00  0.00    +0.098 A 
ATOM     15  N   UNL     1       1.964   6.790  -2.416  0.00  0.00    -0.275 N 
ATOM     16  O   UNL     1       3.238   6.326  -4.208  0.00  0.00    -0.246 OA
ATOM     17  C   UNL     1       1.319   5.061  -0.888  0.00  0.00    +0.088 A 
ATOM     18  C   UNL     1       1.126   6.425  -1.411  0.00  0.00    +0.254 A 
ATOM     19  O   UNL     1       0.244   7.149  -0.963  0.00  0.00    -0.268 OA
ATOM     20  H   UNL     1       1.830   7.714  -2.796  0.00  0.00    +0.173 HD
ENDBRANCH   7  12
BRANCH  11  21
ATOM     21  O   UNL     1       5.882   2.019  -5.249  0.00  0.00    -0.386 OA
ATOM     22  H   UNL     1       5.664   2.849  -5.722  0.00  0.00    +0.210 HD
ENDBRANCH  11  21
BRANCH   9  23
ATOM     23  O   UNL     1       5.638   4.434  -4.411  0.00  0.00    -0.385 OA
ATOM     24  H   UNL     1       6.600   4.300  -4.310  0.00  0.00    +0.210 HD
ENDBRANCH   9  23
ENDBRANCH   6  10
ENDBRANCH   5   6
ENDBRANCH   1   5
BRANCH   1  25
ATOM     25  O   UNL     1       1.920  -3.319  -4.012  0.00  0.00    -0.186 OA
BRANCH  25  26
ATOM     26  P   UNL     1       2.009  -3.304  -2.284  0.00  0.00    +0.486 P 
ATOM     27  O   UNL     1       2.088  -3.291  -0.738  0.00  0.00    -0.227 OA
BRANCH  26  28
ATOM     28  O   UNL     1       3.619  -2.999  -2.452  0.00  0.00    -0.302 OA
ATOM     29  H   UNL     1       3.830  -2.256  -1.855  0.00  0.00    +0.222 HD
ENDBRANCH  26  28
BRANCH  26  30
ATOM     30  O   UNL     1       2.128  -4.918  -2.420  0.00  0.00    -0.254 OA
BRANCH  30  31
ATOM     31  C   UNL     1       1.303  -5.697  -1.585  0.00  0.00    +0.285 C 
ATOM     32  C   UNL     1       1.543  -7.143  -2.026  0.00  0.00    +0.160 C 
ATOM     33  O   UNL     1      -0.055  -5.260  -1.592  0.00  0.00    -0.341 OA
ATOM     34  C   UNL     1       0.719  -7.457  -3.288  0.00  0.00    +0.171 C 
ATOM     35  C   UNL     1      -0.754  -5.463  -2.836  0.00  0.00    +0.178 C 
ATOM     36  C   UNL     1      -0.747  -6.966  -3.133  0.00  0.00    +0.176 C 
BRANCH  32  37
ATOM     37  N   UNL     1       2.996  -7.294  -2.241  0.00  0.00    -0.305 N 
ATOM     38  C   UNL     1       3.731  -8.351  -1.763  0.00  0.00    +0.210 C 
ATOM     39  O   UNL     1       3.209  -9.396  -1.388  0.00  0.00    -0.276 OA
ATOM     40  C   UNL     1       5.218  -8.097  -1.684  0.00  0.00    +0.109 C 
ATOM     41  H   UNL     1       3.489  -6.455  -2.542  0.00  0.00    +0.149 HD
ENDBRANCH  32  37
BRANCH  34  42
ATOM     42  O   UNL     1       0.731  -8.860  -3.579  0.00  0.00    -0.387 OA
ATOM     43  H   UNL     1       1.342  -9.295  -2.952  0.00  0.00    +0.210 HD
ENDBRANCH  34  42
BRANCH  36  44
ATOM     44  O   UNL     1      -1.391  -7.651  -2.043  0.00  0.00    -0.387 OA
ATOM     45  H   UNL     1      -1.221  -7.149  -1.224  0.00  0.00    +0.210 HD
ENDBRANCH  36  44
BRANCH  35  46
ATOM     46  C   UNL     1      -2.163  -4.887  -2.620  0.00  0.00    +0.190 C 
BRANCH  46  47
ATOM     47  O   UNL     1      -2.065  -3.491  -2.310  0.00  0.00    -0.392 OA
ATOM     48  H   UNL     1      -1.656  -3.441  -1.426  0.00  0.00    +0.210 HD
ENDBRANCH  46  47
ENDBRANCH  35  46
ENDBRANCH  30  31
ENDBRANCH  26  30
ENDBRANCH  25  26
ENDBRANCH   1  25
TORSDOF 17
