MODEL 1
REMARK VINA RESULT:    -7.768      0.000      0.000
REMARK INTER + INTRA:          -9.874
REMARK INTER:                  -9.358
REMARK INTRA:                  -0.517
REMARK UNBOUND:                -0.517
REMARK  Name = 5320413
REMARK  7 active torsions:
REMARK  status: ('A' for Active; 'I' for Inactive)
REMARK    1  A    between atoms: O_2  and  C_16
REMARK    2  A    between atoms: O_2  and  C_21
REMARK    3  A    between atoms: O_3  and  C_18
REMARK    4  A    between atoms: C_4  and  C_9
REMARK    5  A    between atoms: C_5  and  C_8
REMARK    6  A    between atoms: C_12  and  C_19
REMARK    7  A    between atoms: C_20  and  C_22
REMARK                            x       y       z     vdW  Elec       q    Type
REMARK                         _______ _______ _______ _____ _____    ______ ____
ROOT
ATOM      1  O   UNL     1      22.505  11.406  29.576  0.00  0.00    +0.000 OA
ATOM      2  C   UNL     1      23.457   9.966  31.325  0.00  0.00    +0.000 C 
ATOM      3  C   UNL     1      22.471  10.057  30.132  0.00  0.00    +0.000 C 
ATOM      4  C   UNL     1      23.877  11.386  31.435  0.00  0.00    +0.000 A 
ATOM      5  C   UNL     1      23.349  12.116  30.387  0.00  0.00    +0.000 A 
ATOM      6  C   UNL     1      24.656   9.072  31.011  0.00  0.00    +0.000 C 
ATOM      7  C   UNL     1      24.708  11.979  32.372  0.00  0.00    +0.000 A 
ATOM      8  C   UNL     1      23.674  13.444  30.201  0.00  0.00    +0.000 A 
ATOM      9  C   UNL     1      25.030  13.337  32.239  0.00  0.00    +0.000 A 
ATOM     10  C   UNL     1      24.531  14.051  31.128  0.00  0.00    +0.000 A 
ENDROOT
BRANCH   3  11
ATOM     11  C   UNL     1      21.051   9.637  30.501  0.00  0.00    +0.000 A 
ATOM     12  C   UNL     1      20.628   8.315  30.240  0.00  0.00    +0.000 A 
ATOM     13  C   UNL     1      20.150  10.523  31.107  0.00  0.00    +0.000 A 
ATOM     14  C   UNL     1      19.322   7.900  30.531  0.00  0.00    +0.000 A 
ATOM     15  C   UNL     1      18.847  10.118  31.410  0.00  0.00    +0.000 A 
ATOM     16  C   UNL     1      18.438   8.820  31.109  0.00  0.00    +0.000 A 
BRANCH  14  17
ATOM     17  O   UNL     1      18.810   6.654  30.283  0.00  0.00    +0.000 OA
ATOM     18  C   UNL     1      18.107   6.453  29.067  0.00  0.00    +0.000 C 
ENDBRANCH  14  17
BRANCH  16  19
ATOM     19  O   UNL     1      17.151   8.434  31.376  0.00  0.00    +0.000 OA
ATOM     20  H   UNL     1      16.664   9.191  31.738  0.00  0.00    +0.000 HD
ENDBRANCH  16  19
ENDBRANCH   3  11
BRANCH   9  21
ATOM     21  C   UNL     1      25.916  13.944  33.245  0.00  0.00    +0.000 C 
ATOM     22  C   UNL     1      25.757  15.181  33.741  0.00  0.00    +0.000 C 
ATOM     23  C   UNL     1      26.632  15.781  34.794  0.00  0.00    +0.000 C 
ENDBRANCH   9  21
TORSDOF 4
ENDMDL
MODEL 2
REMARK VINA RESULT:    -7.340      3.153      8.311
REMARK INTER + INTRA:          -9.359
REMARK INTER:                  -8.657
REMARK INTRA:                  -0.702
REMARK UNBOUND:                -0.517
REMARK  Name = 5320413
REMARK  7 active torsions:
REMARK  status: ('A' for Active; 'I' for Inactive)
REMARK    1  A    between atoms: O_2  and  C_16
REMARK    2  A    between atoms: O_2  and  C_21
REMARK    3  A    between atoms: O_3  and  C_18
REMARK    4  A    between atoms: C_4  and  C_9
REMARK    5  A    between atoms: C_5  and  C_8
REMARK    6  A    between atoms: C_12  and  C_19
REMARK    7  A    between atoms: C_20  and  C_22
REMARK                            x       y       z     vdW  Elec       q    Type
REMARK                         _______ _______ _______ _____ _____    ______ ____
ROOT
ATOM      1  O   UNL     1      25.904  12.344  30.820  0.00  0.00    +0.000 OA
ATOM      2  C   UNL     1      23.782  13.583  30.811  0.00  0.00    +0.000 C 
ATOM      3  C   UNL     1      25.312  13.659  31.044  0.00  0.00    +0.000 C 
ATOM      4  C   UNL     1      23.615  12.122  30.604  0.00  0.00    +0.000 A 
ATOM      5  C   UNL     1      24.852  11.507  30.565  0.00  0.00    +0.000 A 
ATOM      6  C   UNL     1      23.353  14.357  29.564  0.00  0.00    +0.000 C 
ATOM      7  C   UNL     1      22.449  11.396  30.417  0.00  0.00    +0.000 A 
ATOM      8  C   UNL     1      24.977  10.163  30.281  0.00  0.00    +0.000 A 
ATOM      9  C   UNL     1      22.534  10.019  30.165  0.00  0.00    +0.000 A 
ATOM     10  C   UNL     1      23.808   9.420  30.068  0.00  0.00    +0.000 A 
ENDROOT
BRANCH   3  11
ATOM     11  C   UNL     1      25.677  14.213  32.419  0.00  0.00    +0.000 A 
ATOM     12  C   UNL     1      26.779  15.086  32.547  0.00  0.00    +0.000 A 
ATOM     13  C   UNL     1      24.939  13.891  33.567  0.00  0.00    +0.000 A 
ATOM     14  C   UNL     1      27.167  15.588  33.795  0.00  0.00    +0.000 A 
ATOM     15  C   UNL     1      25.311  14.392  34.817  0.00  0.00    +0.000 A 
ATOM     16  C   UNL     1      26.426  15.222  34.926  0.00  0.00    +0.000 A 
BRANCH  14  17
ATOM     17  O   UNL     1      28.240  16.409  34.024  0.00  0.00    +0.000 OA
ATOM     18  C   UNL     1      28.317  17.624  33.297  0.00  0.00    +0.000 C 
ENDBRANCH  14  17
BRANCH  16  19
ATOM     19  O   UNL     1      26.810  15.686  36.157  0.00  0.00    +0.000 OA
ATOM     20  H   UNL     1      26.904  14.932  36.761  0.00  0.00    +0.000 HD
ENDBRANCH  16  19
ENDBRANCH   3  11
BRANCH   9  21
ATOM     21  C   UNL     1      21.283   9.271  29.968  0.00  0.00    +0.000 C 
ATOM     22  C   UNL     1      20.320   9.155  30.896  0.00  0.00    +0.000 C 
ATOM     23  C   UNL     1      19.031   8.430  30.681  0.00  0.00    +0.000 C 
ENDBRANCH   9  21
TORSDOF 4
ENDMDL
MODEL 3
REMARK VINA RESULT:    -7.241      3.195      7.840
REMARK INTER + INTRA:          -9.239
REMARK INTER:                  -8.538
REMARK INTRA:                  -0.700
REMARK UNBOUND:                -0.517
REMARK  Name = 5320413
REMARK  7 active torsions:
REMARK  status: ('A' for Active; 'I' for Inactive)
REMARK    1  A    between atoms: O_2  and  C_16
REMARK    2  A    between atoms: O_2  and  C_21
REMARK    3  A    between atoms: O_3  and  C_18
REMARK    4  A    between atoms: C_4  and  C_9
REMARK    5  A    between atoms: C_5  and  C_8
REMARK    6  A    between atoms: C_12  and  C_19
REMARK    7  A    between atoms: C_20  and  C_22
REMARK                            x       y       z     vdW  Elec       q    Type
REMARK                         _______ _______ _______ _____ _____    ______ ____
ROOT
ATOM      1  O   UNL     1      26.029  12.363  30.445  0.00  0.00    +0.000 OA
ATOM      2  C   UNL     1      23.939  13.625  30.724  0.00  0.00    +0.000 C 
ATOM      3  C   UNL     1      25.488  13.686  30.738  0.00  0.00    +0.000 C 
ATOM      4  C   UNL     1      23.730  12.164  30.556  0.00  0.00    +0.000 A 
ATOM      5  C   UNL     1      24.944  11.535  30.349  0.00  0.00    +0.000 A 
ATOM      6  C   UNL     1      23.345  14.393  29.542  0.00  0.00    +0.000 C 
ATOM      7  C   UNL     1      22.543  11.449  30.542  0.00  0.00    +0.000 A 
ATOM      8  C   UNL     1      25.015  10.188  30.062  0.00  0.00    +0.000 A 
ATOM      9  C   UNL     1      22.578  10.069  30.294  0.00  0.00    +0.000 A 
ATOM     10  C   UNL     1      23.820   9.456  30.023  0.00  0.00    +0.000 A 
ENDROOT
BRANCH   3  11
ATOM     11  C   UNL     1      26.048  14.247  32.042  0.00  0.00    +0.000 A 
ATOM     12  C   UNL     1      25.581  13.740  33.274  0.00  0.00    +0.000 A 
ATOM     13  C   UNL     1      27.030  15.248  32.056  0.00  0.00    +0.000 A 
ATOM     14  C   UNL     1      26.045  14.252  34.493  0.00  0.00    +0.000 A 
ATOM     15  C   UNL     1      27.506  15.761  33.266  0.00  0.00    +0.000 A 
ATOM     16  C   UNL     1      27.004  15.273  34.471  0.00  0.00    +0.000 A 
BRANCH  14  17
ATOM     17  O   UNL     1      25.627  13.852  35.734  0.00  0.00    +0.000 OA
ATOM     18  C   UNL     1      25.241  12.497  35.903  0.00  0.00    +0.000 C 
ENDBRANCH  14  17
BRANCH  16  19
ATOM     19  O   UNL     1      27.447  15.800  35.655  0.00  0.00    +0.000 OA
ATOM     20  H   UNL     1      26.824  15.558  36.360  0.00  0.00    +0.000 HD
ENDBRANCH  16  19
ENDBRANCH   3  11
BRANCH   9  21
ATOM     21  C   UNL     1      21.305   9.333  30.283  0.00  0.00    +0.000 C 
ATOM     22  C   UNL     1      20.248   9.642  31.051  0.00  0.00    +0.000 C 
ATOM     23  C   UNL     1      18.941   8.919  31.009  0.00  0.00    +0.000 C 
ENDBRANCH   9  21
TORSDOF 4
ENDMDL
MODEL 4
REMARK VINA RESULT:    -6.869      3.696      8.965
REMARK INTER + INTRA:          -8.791
REMARK INTER:                  -8.109
REMARK INTRA:                  -0.682
REMARK UNBOUND:                -0.517
REMARK  Name = 5320413
REMARK  7 active torsions:
REMARK  status: ('A' for Active; 'I' for Inactive)
REMARK    1  A    between atoms: O_2  and  C_16
REMARK    2  A    between atoms: O_2  and  C_21
REMARK    3  A    between atoms: O_3  and  C_18
REMARK    4  A    between atoms: C_4  and  C_9
REMARK    5  A    between atoms: C_5  and  C_8
REMARK    6  A    between atoms: C_12  and  C_19
REMARK    7  A    between atoms: C_20  and  C_22
REMARK                            x       y       z     vdW  Elec       q    Type
REMARK                         _______ _______ _______ _____ _____    ______ ____
ROOT
ATOM      1  O   UNL     1      25.084  13.207  34.670  0.00  0.00    +0.000 OA
ATOM      2  C   UNL     1      26.445  12.424  32.781  0.00  0.00    +0.000 C 
ATOM      3  C   UNL     1      26.434  13.210  34.117  0.00  0.00    +0.000 C 
ATOM      4  C   UNL     1      24.994  12.154  32.616  0.00  0.00    +0.000 A 
ATOM      5  C   UNL     1      24.307  12.571  33.741  0.00  0.00    +0.000 A 
ATOM      6  C   UNL     1      27.227  11.115  32.892  0.00  0.00    +0.000 C 
ATOM      7  C   UNL     1      24.335  11.539  31.563  0.00  0.00    +0.000 A 
ATOM      8  C   UNL     1      22.955  12.339  33.883  0.00  0.00    +0.000 A 
ATOM      9  C   UNL     1      22.953  11.322  31.654  0.00  0.00    +0.000 A 
ATOM     10  C   UNL     1      22.279  11.698  32.835  0.00  0.00    +0.000 A 
ENDROOT
BRANCH   3  11
ATOM     11  C   UNL     1      26.982  14.627  33.977  0.00  0.00    +0.000 A 
ATOM     12  C   UNL     1      28.129  14.854  33.186  0.00  0.00    +0.000 A 
ATOM     13  C   UNL     1      26.370  15.723  34.602  0.00  0.00    +0.000 A 
ATOM     14  C   UNL     1      28.683  16.135  33.060  0.00  0.00    +0.000 A 
ATOM     15  C   UNL     1      26.908  17.006  34.477  0.00  0.00    +0.000 A 
ATOM     16  C   UNL     1      28.064  17.202  33.723  0.00  0.00    +0.000 A 
BRANCH  14  17
ATOM     17  O   UNL     1      29.810  16.447  32.348  0.00  0.00    +0.000 OA
ATOM     18  C   UNL     1      30.333  15.469  31.463  0.00  0.00    +0.000 C 
ENDBRANCH  14  17
BRANCH  16  19
ATOM     19  O   UNL     1      28.610  18.455  33.629  0.00  0.00    +0.000 OA
ATOM     20  H   UNL     1      29.547  18.409  33.878  0.00  0.00    +0.000 HD
ENDBRANCH  16  19
ENDBRANCH   3  11
BRANCH   9  21
ATOM     21  C   UNL     1      22.277  10.667  30.523  0.00  0.00    +0.000 C 
ATOM     22  C   UNL     1      21.495   9.581  30.639  0.00  0.00    +0.000 C 
ATOM     23  C   UNL     1      20.775   8.941  29.497  0.00  0.00    +0.000 C 
ENDBRANCH   9  21
TORSDOF 4
ENDMDL
MODEL 5
REMARK VINA RESULT:    -6.704      3.079      8.102
REMARK INTER + INTRA:          -8.592
REMARK INTER:                  -7.913
REMARK INTRA:                  -0.680
REMARK UNBOUND:                -0.517
REMARK  Name = 5320413
REMARK  7 active torsions:
REMARK  status: ('A' for Active; 'I' for Inactive)
REMARK    1  A    between atoms: O_2  and  C_16
REMARK    2  A    between atoms: O_2  and  C_21
REMARK    3  A    between atoms: O_3  and  C_18
REMARK    4  A    between atoms: C_4  and  C_9
REMARK    5  A    between atoms: C_5  and  C_8
REMARK    6  A    between atoms: C_12  and  C_19
REMARK    7  A    between atoms: C_20  and  C_22
REMARK                            x       y       z     vdW  Elec       q    Type
REMARK                         _______ _______ _______ _____ _____    ______ ____
ROOT
ATOM      1  O   UNL     1      24.434  11.852  30.542  0.00  0.00    +0.000 OA
ATOM      2  C   UNL     1      23.379  12.272  32.721  0.00  0.00    +0.000 C 
ATOM      3  C   UNL     1      24.625  12.510  31.831  0.00  0.00    +0.000 C 
ATOM      4  C   UNL     1      22.613  11.331  31.865  0.00  0.00    +0.000 A 
ATOM      5  C   UNL     1      23.239  11.192  30.640  0.00  0.00    +0.000 A 
ATOM      6  C   UNL     1      22.585  13.558  32.951  0.00  0.00    +0.000 C 
ATOM      7  C   UNL     1      21.420  10.679  32.136  0.00  0.00    +0.000 A 
ATOM      8  C   UNL     1      22.673  10.450  29.625  0.00  0.00    +0.000 A 
ATOM      9  C   UNL     1      20.834   9.884  31.141  0.00  0.00    +0.000 A 
ATOM     10  C   UNL     1      21.455   9.803  29.877  0.00  0.00    +0.000 A 
ENDROOT
BRANCH   3  11
ATOM     11  C   UNL     1      25.925  12.071  32.498  0.00  0.00    +0.000 A 
ATOM     12  C   UNL     1      26.517  12.898  33.479  0.00  0.00    +0.000 A 
ATOM     13  C   UNL     1      26.550  10.858  32.178  0.00  0.00    +0.000 A 
ATOM     14  C   UNL     1      27.727  12.548  34.090  0.00  0.00    +0.000 A 
ATOM     15  C   UNL     1      27.754  10.493  32.786  0.00  0.00    +0.000 A 
ATOM     16  C   UNL     1      28.341  11.343  33.724  0.00  0.00    +0.000 A 
BRANCH  14  17
ATOM     17  O   UNL     1      28.394  13.298  35.021  0.00  0.00    +0.000 OA
ATOM     18  C   UNL     1      28.684  14.651  34.705  0.00  0.00    +0.000 C 
ENDBRANCH  14  17
BRANCH  16  19
ATOM     19  O   UNL     1      29.538  11.001  34.295  0.00  0.00    +0.000 OA
ATOM     20  H   UNL     1      29.457  10.118  34.690  0.00  0.00    +0.000 HD
ENDBRANCH  16  19
ENDBRANCH   3  11
BRANCH   9  21
ATOM     21  C   UNL     1      19.567   9.204  31.453  0.00  0.00    +0.000 C 
ATOM     22  C   UNL     1      19.225   7.994  30.981  0.00  0.00    +0.000 C 
ATOM     23  C   UNL     1      17.956   7.286  31.331  0.00  0.00    +0.000 C 
ENDBRANCH   9  21
TORSDOF 4
ENDMDL
