REMARK  Name = 5320413
REMARK  7 active torsions:
REMARK  status: ('A' for Active; 'I' for Inactive)
REMARK    1  A    between atoms: O_2  and  C_16
REMARK    2  A    between atoms: O_2  and  C_21
REMARK    3  A    between atoms: O_3  and  C_18
REMARK    4  A    between atoms: C_4  and  C_9
REMARK    5  A    between atoms: C_5  and  C_8
REMARK    6  A    between atoms: C_12  and  C_19
REMARK    7  A    between atoms: C_20  and  C_22
REMARK                            x       y       z     vdW  Elec       q    Type
REMARK                         _______ _______ _______ _____ _____    ______ ____
ROOT
ATOM      1  O   UNL     1      -1.740   0.688   0.212  0.00  0.00    +0.000 OA
ATOM      2  C   UNL     1      -1.305  -1.710  -0.104  0.00  0.00    +0.000 C 
ATOM      3  C   UNL     1      -2.382  -0.620   0.130  0.00  0.00    +0.000 C 
ATOM      4  C   UNL     1      -0.069  -0.895   0.016  0.00  0.00    +0.000 A 
ATOM      5  C   UNL     1      -0.396   0.443   0.133  0.00  0.00    +0.000 A 
ATOM      6  C   UNL     1      -1.409  -2.329  -1.498  0.00  0.00    +0.000 C 
ATOM      7  C   UNL     1       1.254  -1.307  -0.023  0.00  0.00    +0.000 A 
ATOM      8  C   UNL     1       0.577   1.420   0.156  0.00  0.00    +0.000 A 
ATOM      9  C   UNL     1       2.272  -0.345   0.038  0.00  0.00    +0.000 A 
ATOM     10  C   UNL     1       1.919   1.020   0.095  0.00  0.00    +0.000 A 
ENDROOT
BRANCH   3  11
ATOM     11  C   UNL     1      -3.252  -0.897   1.353  0.00  0.00    +0.000 A 
ATOM     12  C   UNL     1      -4.390  -1.723   1.224  0.00  0.00    +0.000 A 
ATOM     13  C   UNL     1      -2.948  -0.365   2.614  0.00  0.00    +0.000 A 
ATOM     14  C   UNL     1      -5.233  -1.973   2.314  0.00  0.00    +0.000 A 
ATOM     15  C   UNL     1      -3.777  -0.614   3.711  0.00  0.00    +0.000 A 
ATOM     16  C   UNL     1      -4.917  -1.401   3.553  0.00  0.00    +0.000 A 
BRANCH  14  17
ATOM     17  O   UNL     1      -6.375  -2.728   2.279  0.00  0.00    +0.000 OA
ATOM     18  C   UNL     1      -6.742  -3.326   1.046  0.00  0.00    +0.000 C 
ENDBRANCH  14  17
BRANCH  16  19
ATOM     19  O   UNL     1      -5.747  -1.617   4.621  0.00  0.00    +0.000 OA
ATOM     20  H   UNL     1      -5.503  -1.009   5.337  0.00  0.00    +0.000 HD
ENDBRANCH  16  19
ENDBRANCH   3  11
BRANCH   9  21
ATOM     21  C   UNL     1       3.668  -0.807  -0.007  0.00  0.00    +0.000 C 
ATOM     22  C   UNL     1       4.689  -0.181   0.600  0.00  0.00    +0.000 C 
ATOM     23  C   UNL     1       6.100  -0.674   0.589  0.00  0.00    +0.000 C 
ENDBRANCH   9  21
TORSDOF 4
