REMARK  Name = 
REMARK  8 active torsions:
REMARK  status: ('A' for Active; 'I' for Inactive)
REMARK    1  A    between atoms: P_1  and  O_2
REMARK    2  A    between atoms: P_1  and  O_3
REMARK    3  A    between atoms: P_1  and  O_4
REMARK    4  A    between atoms: O_2  and  C_6
REMARK    5  A    between atoms: C_6  and  C_7
REMARK    6  A    between atoms: C_7  and  C_8
REMARK    7  A    between atoms: C_7  and  O_9
REMARK    8  A    between atoms: C_8  and  O_10
REMARK                            x       y       z     vdW  Elec       q    Type
REMARK                         _______ _______ _______ _____ _____    ______ ____
ROOT
ATOM      1  C   UNL     1      -0.171   4.431   0.307  0.00  0.00    +0.215 C 
ENDROOT
BRANCH   1   2
ATOM      2  O   UNL     1       0.076   4.594  -1.103  0.00  0.00    -0.284 OA
BRANCH   2   3
ATOM      3  P   UNL     1      -1.270   5.093  -1.934  0.00  0.00    +0.472 P 
ATOM      4  O   UNL     1      -1.837   3.662  -2.100  0.00  0.00    -0.228 OA
BRANCH   3   5
ATOM      5  O   UNL     1      -0.609   5.183  -3.424  0.00  0.00    -0.303 OA
ATOM      6  H   UNL     1      -1.078   4.543  -3.997  0.00  0.00    +0.222 HD
ENDBRANCH   3   5
BRANCH   3   7
ATOM      7  O   UNL     1      -0.635   6.692  -1.750  0.00  0.00    -0.303 OA
ATOM      8  H   UNL     1       0.096   6.740  -2.399  0.00  0.00    +0.222 HD
ENDBRANCH   3   7
ENDBRANCH   2   3
ENDBRANCH   1   2
BRANCH   1   9
ATOM      9  C   UNL     1       1.092   3.963   1.019  0.00  0.00    +0.249 C 
BRANCH   9  10
ATOM     10  C   UNL     1       2.192   5.019   0.897  0.00  0.00    +0.336 C 
ATOM     11  O   UNL     1       2.752   5.567   1.838  0.00  0.00    -0.248 OA
BRANCH  10  12
ATOM     12  O   UNL     1       2.522   5.302  -0.390  0.00  0.00    -0.479 OA
ATOM     13  H   UNL     1       1.901   4.899  -1.036  0.00  0.00    +0.295 HD
ENDBRANCH  10  12
ENDBRANCH   9  10
BRANCH   9  14
ATOM     14  O   UNL     1       1.503   2.691   0.531  0.00  0.00    -0.379 OA
ATOM     15  H   UNL     1       1.784   2.783  -0.394  0.00  0.00    +0.211 HD
ENDBRANCH   9  14
ENDBRANCH   1   9
TORSDOF 8
