REMARK  Name = 
REMARK  6 active torsions:
REMARK  status: ('A' for Active; 'I' for Inactive)
REMARK    1  A    between atoms: O_1  and  C_2
REMARK    2  A    between atoms: C_2  and  CA_3
REMARK    3  A    between atoms: CA_3  and  CB_4
REMARK    4  A    between atoms: CA_3  and  N_8
REMARK    5  A    between atoms: CB_4  and  CG_5
REMARK    6  A    between atoms: CG_5  and  OD1_6
REMARK                            x       y       z     vdW  Elec       q    Type
REMARK                         _______ _______ _______ _____ _____    ______ ____
ROOT
ATOM      1  CA  ASP A   1       3.245  -1.146  -0.555  0.00  0.00    +0.171 C 
ENDROOT
BRANCH   1   2
ATOM      2  N   ASP A   1       2.434  -2.202  -1.233  0.00  0.00    -0.318 NA
ATOM      3  H1  ASP A   1       2.174  -2.885  -0.499  0.00  0.00    +0.119 HD
ATOM      4  H2  ASP A   1       3.072  -2.760  -1.814  0.00  0.00    +0.119 HD
ENDBRANCH   1   2
BRANCH   1   5
ATOM      5  C   ASP A   1       4.130  -1.785   0.522  0.00  0.00    +0.322 C 
ATOM      6  OXT ASP A   1       3.867  -2.852   1.059  0.00  0.00    -0.249 OA
BRANCH   5   7
ATOM      7  O   ASP A   1       5.229  -1.063   0.833  0.00  0.00    -0.480 OA
ATOM      8  H   ASP A   1       5.351  -0.237   0.329  0.00  0.00    +0.295 HD
ENDBRANCH   5   7
ENDBRANCH   1   5
BRANCH   1   9
ATOM      9  CB  ASP A   1       2.325  -0.118   0.091  0.00  0.00    +0.150 C 
BRANCH   9  10
ATOM     10  CG  ASP A   1       1.549   0.681  -0.924  0.00  0.00    +0.307 C 
ATOM     11  OD2 ASP A   1       1.381   1.889  -0.836  0.00  0.00    -0.251 OA
BRANCH  10  12
ATOM     12  OD1 ASP A   1       1.005  -0.058  -1.914  0.00  0.00    -0.481 OA
ATOM     13  HD1 ASP A   1       1.258  -1.015  -1.841  0.00  0.00    +0.295 HD
ENDBRANCH  10  12
ENDBRANCH   9  10
ENDBRANCH   1   9
TORSDOF 6
