REMARK  Name = 
REMARK  8 active torsions:
REMARK  status: ('A' for Active; 'I' for Inactive)
REMARK    1  A    between atoms: O_1  and  C_2
REMARK    2  A    between atoms: C_2  and  C_3
REMARK    3  A    between atoms: C_3  and  C_4
REMARK    4  A    between atoms: C_3  and  O_6
REMARK    5  A    between atoms: C_4  and  O_5
REMARK    6  A    between atoms: O_5  and  P_7
REMARK    7  A    between atoms: P_7  and  O_8
REMARK    8  A    between atoms: P_7  and  O_10
REMARK                            x       y       z     vdW  Elec       q    Type
REMARK                         _______ _______ _______ _____ _____    ______ ____
ROOT
ATOM      1  C   UNL     1       2.447  -0.001  -0.139  0.00  0.00    +0.206 C 
ENDROOT
BRANCH   1   2
ATOM      2  C   UNL     1       2.977  -0.606  -1.441  0.00  0.00    +0.166 C 
BRANCH   2   3
ATOM      3  O   UNL     1       2.986  -2.033  -1.324  0.00  0.00    -0.387 OA
ATOM      4  H   UNL     1       3.498  -2.230  -0.518  0.00  0.00    +0.210 HD
ENDBRANCH   2   3
BRANCH   2   5
ATOM      5  C   UNL     1       4.378  -0.104  -1.797  0.00  0.00    +0.189 C 
BRANCH   5   6
ATOM      6  O   UNL     1       4.366   1.301  -2.014  0.00  0.00    -0.392 OA
ATOM      7  H   UNL     1       5.295   1.591  -2.050  0.00  0.00    +0.210 HD
ENDBRANCH   5   6
ENDBRANCH   2   5
ENDBRANCH   1   2
BRANCH   1   8
ATOM      8  O   UNL     1       3.285  -0.373   0.964  0.00  0.00    -0.284 OA
BRANCH   8   9
ATOM      9  P   UNL     1       2.698   0.253   2.466  0.00  0.00    +0.472 P 
ATOM     10  O   UNL     1       3.113   1.682   2.126  0.00  0.00    -0.228 OA
BRANCH   9  11
ATOM     11  O   UNL     1       3.946  -0.422   3.262  0.00  0.00    -0.303 OA
ATOM     12  H   UNL     1       3.731  -1.299   3.622  0.00  0.00    +0.222 HD
ENDBRANCH   9  11
BRANCH   9  13
ATOM     13  O   UNL     1       2.110   0.879   3.968  0.00  0.00    -0.303 OA
ATOM     14  H   UNL     1       2.463   1.795   3.943  0.00  0.00    +0.222 HD
ENDBRANCH   9  13
ENDBRANCH   8   9
ENDBRANCH   1   8
TORSDOF 8
