REMARK  Name = 
REMARK  8 active torsions:
REMARK  status: ('A' for Active; 'I' for Inactive)
REMARK    1  A    between atoms: N_1  and  C_3
REMARK    2  A    between atoms: C_8  and  O_14
REMARK    3  A    between atoms: C_12  and  C_17
REMARK    4  A    between atoms: C_13  and  O_18
REMARK    5  A    between atoms: C_17  and  O_19
REMARK    6  A    between atoms: O_19  and  P_20
REMARK    7  A    between atoms: P_20  and  O_21
REMARK    8  A    between atoms: P_20  and  O_22
REMARK                            x       y       z     vdW  Elec       q    Type
REMARK                         _______ _______ _______ _____ _____    ______ ____
ROOT
ATOM      1  C   UNL     1       1.987  -2.496  -0.044  0.00  0.00    +0.253 C 
ATOM      2  O   UNL     1       2.706  -2.830   1.170  0.00  0.00    -0.346 OA
ATOM      3  C   UNL     1       2.917  -2.798  -1.221  0.00  0.00    +0.195 C 
ATOM      4  C   UNL     1       3.914  -3.551   0.824  0.00  0.00    +0.178 C 
ATOM      5  C   UNL     1       3.760  -3.931  -0.653  0.00  0.00    +0.178 C 
ENDROOT
BRANCH   1   6
ATOM      6  N   UNL     1       1.552  -1.115   0.015  0.00  0.00    -0.285 N 
ATOM      7  C   UNL     1       0.413  -0.607  -0.539  0.00  0.00    +0.169 A 
ATOM      8  C   UNL     1       2.210  -0.067   0.611  0.00  0.00    +0.203 A 
ATOM      9  C   UNL     1       0.449   0.744  -0.266  0.00  0.00    +0.172 A 
ATOM     10  N   UNL     1      -0.544  -1.303  -1.205  0.00  0.00    -0.218 NA
ATOM     11  N   UNL     1       1.576   1.076   0.443  0.00  0.00    -0.229 NA
ATOM     12  C   UNL     1      -0.632   1.565  -0.749  0.00  0.00    +0.279 A 
ATOM     13  C   UNL     1      -1.502  -0.541  -1.636  0.00  0.00    +0.201 A 
ATOM     14  N   UNL     1      -1.587   0.830  -1.442  0.00  0.00    -0.312 N 
ATOM     15  O   UNL     1      -0.757   2.771  -0.589  0.00  0.00    -0.265 OA
ATOM     16  H   UNL     1      -2.369   1.350  -1.804  0.00  0.00    +0.170 HD
ENDBRANCH   1   6
BRANCH   3  17
ATOM     17  O   UNL     1       2.238  -3.206  -2.405  0.00  0.00    -0.385 OA
ATOM     18  H   UNL     1       2.106  -4.174  -2.329  0.00  0.00    +0.210 HD
ENDBRANCH   3  17
BRANCH   5  19
ATOM     19  O   UNL     1       3.022  -5.161  -0.810  0.00  0.00    -0.386 OA
ATOM     20  H   UNL     1       2.495  -5.318  -0.010  0.00  0.00    +0.210 HD
ENDBRANCH   5  19
BRANCH   4  21
ATOM     21  C   UNL     1       5.138  -2.658   1.043  0.00  0.00    +0.206 C 
BRANCH  21  22
ATOM     22  O   UNL     1       5.305  -2.278   2.427  0.00  0.00    -0.284 OA
BRANCH  22  23
ATOM     23  P   UNL     1       6.658  -1.278   2.827  0.00  0.00    +0.472 P 
ATOM     24  O   UNL     1       7.869  -0.382   3.186  0.00  0.00    -0.228 OA
BRANCH  23  25
ATOM     25  O   UNL     1       7.600  -2.479   2.234  0.00  0.00    -0.303 OA
ATOM     26  H   UNL     1       7.903  -3.066   2.948  0.00  0.00    +0.222 HD
ENDBRANCH  23  25
BRANCH  23  27
ATOM     27  O   UNL     1       6.394  -0.452   1.438  0.00  0.00    -0.303 OA
ATOM     28  H   UNL     1       6.137   0.468   1.632  0.00  0.00    +0.222 HD
ENDBRANCH  23  27
ENDBRANCH  22  23
ENDBRANCH  21  22
ENDBRANCH   4  21
TORSDOF 8
