MODEL 1
REMARK VINA RESULT:    -9.924      0.000      0.000
REMARK INTER + INTRA:         -22.279
REMARK INTER:                 -19.788
REMARK INTRA:                  -2.491
REMARK UNBOUND:                -2.491
REMARK  Name = 
REMARK  23 active torsions:
REMARK  status: ('A' for Active; 'I' for Inactive)
REMARK    1  A    between atoms: N_7  and  C_19
REMARK    2  A    between atoms: C_12  and  C_18
REMARK    3  A    between atoms: C_13  and  C_17
REMARK    4  A    between atoms: C_19  and  C_20
REMARK    5  A    between atoms: C_20  and  C_21
REMARK    6  A    between atoms: C_20  and  O_25
REMARK    7  A    between atoms: C_21  and  C_22
REMARK    8  A    between atoms: C_21  and  O_27
REMARK    9  A    between atoms: C_22  and  C_23
REMARK   10  A    between atoms: C_22  and  O_26
REMARK   11  A    between atoms: C_23  and  O_24
REMARK   12  A    between atoms: O_24  and  P_28
REMARK   13  A    between atoms: P_28  and  O_29
REMARK   14  A    between atoms: P_28  and  O_31
REMARK   15  A    between atoms: O_29  and  P_32
REMARK   16  A    between atoms: P_32  and  O_33
REMARK   17  A    between atoms: P_32  and  O_35
REMARK   18  A    between atoms: O_33  and  C_37
REMARK   19  A    between atoms: C_36  and  C_37
REMARK   20  A    between atoms: C_38  and  O_42
REMARK   21  A    between atoms: C_39  and  O_43
REMARK   22  A    between atoms: C_40  and  N_50
REMARK   23  A    between atoms: C_49  and  N_53
REMARK                            x       y       z     vdW  Elec       q    Type
REMARK                         _______ _______ _______ _____ _____    ______ ____
ROOT
ATOM      1  P   UNL     1       5.530  -7.043 -19.111  0.00  0.00    +0.483 P 
ATOM      2  O   UNL     1       4.660  -6.637 -20.297  0.00  0.00    -0.227 OA
ENDROOT
BRANCH   1   3
ATOM      3  O   UNL     1       5.042  -5.622 -18.254  0.00  0.00    -0.302 OA
ATOM      4  H   UNL     1       4.410  -5.781 -17.519  0.00  0.00    +0.222 HD
ENDBRANCH   1   3
BRANCH   1   5
ATOM      5  O   UNL     1       6.983  -6.342 -19.299  0.00  0.00    -0.186 OA
BRANCH   5   6
ATOM      6  P   UNL     1       7.452  -5.072 -20.155  0.00  0.00    +0.483 P 
ATOM      7  O   UNL     1       8.703  -5.183 -20.953  0.00  0.00    -0.227 OA
BRANCH   6   8
ATOM      8  O   UNL     1       6.191  -4.560 -21.020  0.00  0.00    -0.302 OA
ATOM      9  H   UNL     1       6.242  -4.960 -21.917  0.00  0.00    +0.222 HD
ENDBRANCH   6   8
BRANCH   6  10
ATOM     10  O   UNL     1       7.466  -3.865 -19.098  0.00  0.00    -0.284 OA
BRANCH  10  11
ATOM     11  C   UNL     1       8.556  -2.999 -19.251  0.00  0.00    +0.206 C 
BRANCH  11  12
ATOM     12  C   UNL     1       8.256  -1.860 -20.197  0.00  0.00    +0.178 C 
ATOM     13  C   UNL     1       9.361  -0.846 -20.007  0.00  0.00    +0.178 C 
ATOM     14  C   UNL     1       8.786   0.120 -18.968  0.00  0.00    +0.195 C 
ATOM     15  C   UNL     1       7.280   0.100 -19.249  0.00  0.00    +0.253 C 
ATOM     16  O   UNL     1       7.024  -1.192 -19.887  0.00  0.00    -0.346 OA
BRANCH  15  23
ATOM     17  N   UNL     1       3.508   2.653 -16.639  0.00  0.00    -0.219 NA
ATOM     18  C   UNL     1       4.575   3.173 -17.292  0.00  0.00    +0.225 A 
ATOM     19  N   UNL     1       5.608   2.539 -17.912  0.00  0.00    -0.216 NA
ATOM     20  C   UNL     1       5.518   1.210 -17.735  0.00  0.00    +0.167 A 
ATOM     21  C   UNL     1       4.489   0.553 -17.065  0.00  0.00    +0.147 A 
ATOM     22  C   UNL     1       3.411   1.312 -16.587  0.00  0.00    +0.147 A 
ATOM     23  N   UNL     1       6.372   0.193 -18.109  0.00  0.00    -0.286 N 
ATOM     24  C   UNL     1       5.979  -0.904 -17.374  0.00  0.00    +0.203 A 
ATOM     25  N   UNL     1       4.764  -0.779 -16.896  0.00  0.00    -0.231 NA
BRANCH  22  26
ATOM     26  N   UNL     1       2.304   0.707 -15.995  0.00  0.00    -0.341 N 
ATOM     27  H   UNL     1       1.499   0.717 -16.618  0.00  0.00    +0.144 HD
ATOM     28  H   UNL     1       2.536  -0.190 -15.590  0.00  0.00    +0.144 HD
ENDBRANCH  22  26
ENDBRANCH  15  23
BRANCH  14  29
ATOM     29  O   UNL     1       9.422   1.383 -19.120  0.00  0.00    -0.385 OA
ATOM     30  H   UNL     1      10.305   1.297 -18.693  0.00  0.00    +0.210 HD
ENDBRANCH  14  29
BRANCH  13  31
ATOM     31  O   UNL     1       9.655  -0.144 -21.214  0.00  0.00    -0.386 OA
ATOM     32  H   UNL     1      10.618  -0.161 -21.373  0.00  0.00    +0.210 HD
ENDBRANCH  13  31
ENDBRANCH  11  12
ENDBRANCH  10  11
ENDBRANCH   6  10
ENDBRANCH   5   6
ENDBRANCH   1   5
BRANCH   1  33
ATOM     33  O   UNL     1       6.018  -8.464 -19.970  0.00  0.00    -0.284 OA
BRANCH  33  34
ATOM     34  C   UNL     1       5.739  -8.259 -21.343  0.00  0.00    +0.206 C 
BRANCH  34  35
ATOM     35  C   UNL     1       4.829  -9.346 -21.886  0.00  0.00    +0.172 C 
BRANCH  35  36
ATOM     36  O   UNL     1       3.836  -9.567 -20.894  0.00  0.00    -0.387 OA
ATOM     37  H   UNL     1       4.255  -9.542 -20.011  0.00  0.00    +0.210 HD
ENDBRANCH  35  36
BRANCH  35  38
ATOM     38  C   UNL     1       4.252  -9.001 -23.278  0.00  0.00    +0.175 C 
BRANCH  38  39
ATOM     39  O   UNL     1       4.712  -9.911 -24.284  0.00  0.00    -0.387 OA
ATOM     40  H   UNL     1       3.977 -10.458 -24.620  0.00  0.00    +0.210 HD
ENDBRANCH  38  39
BRANCH  38  41
ATOM     41  C   UNL     1       2.701  -8.994 -23.346  0.00  0.00    +0.165 C 
BRANCH  41  42
ATOM     42  O   UNL     1       2.201  -7.666 -23.618  0.00  0.00    -0.387 OA
ATOM     43  H   UNL     1       2.699  -7.017 -23.099  0.00  0.00    +0.210 HD
ENDBRANCH  41  42
BRANCH  41  44
ATOM     44  C   UNL     1       2.096  -9.979 -24.372  0.00  0.00    +0.158 C 
BRANCH  44  51
ATOM     45  N   UNL     1      -2.325  -8.030 -25.974  0.00  0.00    -0.272 N 
ATOM     46  C   UNL     1      -1.037  -7.971 -26.421  0.00  0.00    +0.351 A 
ATOM     47  N   UNL     1      -0.064  -8.702 -25.794  0.00  0.00    -0.173 NA
ATOM     48  C   UNL     1      -0.327  -9.584 -24.880  0.00  0.00    +0.170 A 
ATOM     49  C   UNL     1      -1.770  -9.836 -24.512  0.00  0.00    +0.171 A 
ATOM     50  C   UNL     1      -2.828  -8.944 -25.099  0.00  0.00    +0.282 A 
ATOM     51  N   UNL     1       0.658 -10.278 -24.187  0.00  0.00    -0.320 N 
ATOM     52  C   UNL     1       0.263 -11.397 -23.419  0.00  0.00    +0.069 A 
ATOM     53  C   UNL     1      -1.112 -11.613 -23.173  0.00  0.00    +0.089 A 
ATOM     54  N   UNL     1      -2.114 -10.784 -23.697  0.00  0.00    -0.237 NA
ATOM     55  C   UNL     1       1.161 -12.308 -22.856  0.00  0.00    +0.031 A 
ATOM     56  C   UNL     1       0.737 -13.363 -22.033  0.00  0.00    -0.045 A 
ATOM     57  C   UNL     1      -0.626 -13.547 -21.766  0.00  0.00    -0.045 A 
ATOM     58  C   UNL     1      -1.538 -12.667 -22.354  0.00  0.00    +0.033 A 
ATOM     59  O   UNL     1      -4.009  -9.049 -24.822  0.00  0.00    -0.265 OA
ATOM     60  O   UNL     1      -0.774  -7.245 -27.362  0.00  0.00    -0.245 OA
ATOM     61  C   UNL     1      -1.146 -14.644 -20.879  0.00  0.00    +0.044 C 
ATOM     62  C   UNL     1       1.779 -14.242 -21.418  0.00  0.00    +0.044 C 
ATOM     63  H   UNL     1      -2.978  -7.450 -26.477  0.00  0.00    +0.174 HD
ENDBRANCH  44  51
ENDBRANCH  41  44
ENDBRANCH  38  41
ENDBRANCH  35  38
ENDBRANCH  34  35
ENDBRANCH  33  34
ENDBRANCH   1  33
TORSDOF 21
ENDMDL
MODEL 2
REMARK VINA RESULT:    -9.180      4.260      6.264
REMARK INTER + INTRA:         -20.794
REMARK INTER:                 -18.364
REMARK INTRA:                  -2.430
REMARK UNBOUND:                -2.491
REMARK  Name = 
REMARK  23 active torsions:
REMARK  status: ('A' for Active; 'I' for Inactive)
REMARK    1  A    between atoms: N_7  and  C_19
REMARK    2  A    between atoms: C_12  and  C_18
REMARK    3  A    between atoms: C_13  and  C_17
REMARK    4  A    between atoms: C_19  and  C_20
REMARK    5  A    between atoms: C_20  and  C_21
REMARK    6  A    between atoms: C_20  and  O_25
REMARK    7  A    between atoms: C_21  and  C_22
REMARK    8  A    between atoms: C_21  and  O_27
REMARK    9  A    between atoms: C_22  and  C_23
REMARK   10  A    between atoms: C_22  and  O_26
REMARK   11  A    between atoms: C_23  and  O_24
REMARK   12  A    between atoms: O_24  and  P_28
REMARK   13  A    between atoms: P_28  and  O_29
REMARK   14  A    between atoms: P_28  and  O_31
REMARK   15  A    between atoms: O_29  and  P_32
REMARK   16  A    between atoms: P_32  and  O_33
REMARK   17  A    between atoms: P_32  and  O_35
REMARK   18  A    between atoms: O_33  and  C_37
REMARK   19  A    between atoms: C_36  and  C_37
REMARK   20  A    between atoms: C_38  and  O_42
REMARK   21  A    between atoms: C_39  and  O_43
REMARK   22  A    between atoms: C_40  and  N_50
REMARK   23  A    between atoms: C_49  and  N_53
REMARK                            x       y       z     vdW  Elec       q    Type
REMARK                         _______ _______ _______ _____ _____    ______ ____
ROOT
ATOM      1  P   UNL     1       7.745  -3.567 -18.891  0.00  0.00    +0.483 P 
ATOM      2  O   UNL     1       6.382  -4.162 -18.549  0.00  0.00    -0.227 OA
ENDROOT
BRANCH   1   3
ATOM      3  O   UNL     1       7.658  -2.545 -17.498  0.00  0.00    -0.302 OA
ATOM      4  H   UNL     1       6.989  -1.829 -17.554  0.00  0.00    +0.222 HD
ENDBRANCH   1   3
BRANCH   1   5
ATOM      5  O   UNL     1       7.494  -2.239 -19.791  0.00  0.00    -0.186 OA
BRANCH   5   6
ATOM      6  P   UNL     1       8.422  -0.972 -20.105  0.00  0.00    +0.483 P 
ATOM      7  O   UNL     1       9.233  -0.985 -21.352  0.00  0.00    -0.227 OA
BRANCH   6   8
ATOM      8  O   UNL     1       7.523   0.357 -19.946  0.00  0.00    -0.302 OA
ATOM      9  H   UNL     1       7.665   0.727 -19.046  0.00  0.00    +0.222 HD
ENDBRANCH   6   8
BRANCH   6  10
ATOM     10  O   UNL     1       9.293  -0.778 -18.771  0.00  0.00    -0.284 OA
BRANCH  10  11
ATOM     11  C   UNL     1      10.664  -0.992 -18.961  0.00  0.00    +0.206 C 
BRANCH  11  12
ATOM     12  C   UNL     1      11.502   0.145 -18.426  0.00  0.00    +0.178 C 
ATOM     13  C   UNL     1      10.889   1.417 -18.965  0.00  0.00    +0.178 C 
ATOM     14  C   UNL     1      11.684   1.686 -20.245  0.00  0.00    +0.195 C 
ATOM     15  C   UNL     1      13.074   1.123 -19.931  0.00  0.00    +0.253 C 
ATOM     16  O   UNL     1      12.856   0.106 -18.903  0.00  0.00    -0.346 OA
BRANCH  15  23
ATOM     17  N   UNL     1      13.133  -1.987 -24.159  0.00  0.00    -0.219 NA
ATOM     18  C   UNL     1      12.417  -2.137 -23.019  0.00  0.00    +0.225 A 
ATOM     19  N   UNL     1      12.435  -1.393 -21.878  0.00  0.00    -0.216 NA
ATOM     20  C   UNL     1      13.383  -0.443 -21.952  0.00  0.00    +0.167 A 
ATOM     21  C   UNL     1      14.200  -0.201 -23.052  0.00  0.00    +0.147 A 
ATOM     22  C   UNL     1      13.990  -0.951 -24.218  0.00  0.00    +0.147 A 
ATOM     23  N   UNL     1      13.809   0.476 -21.015  0.00  0.00    -0.286 N 
ATOM     24  C   UNL     1      15.017   0.944 -21.484  0.00  0.00    +0.203 A 
ATOM     25  N   UNL     1      15.182   0.711 -22.764  0.00  0.00    -0.231 NA
BRANCH  22  26
ATOM     26  N   UNL     1      14.705  -0.693 -25.386  0.00  0.00    -0.341 N 
ATOM     27  H   UNL     1      15.619  -0.297 -25.181  0.00  0.00    +0.144 HD
ATOM     28  H   UNL     1      14.700  -1.486 -26.014  0.00  0.00    +0.144 HD
ENDBRANCH  22  26
ENDBRANCH  15  23
BRANCH  14  29
ATOM     29  O   UNL     1      11.634   3.079 -20.527  0.00  0.00    -0.385 OA
ATOM     30  H   UNL     1      11.112   3.170 -21.357  0.00  0.00    +0.210 HD
ENDBRANCH  14  29
BRANCH  13  31
ATOM     31  O   UNL     1      11.041   2.509 -18.059  0.00  0.00    -0.386 OA
ATOM     32  H   UNL     1      11.982   2.764 -18.014  0.00  0.00    +0.210 HD
ENDBRANCH  13  31
ENDBRANCH  11  12
ENDBRANCH  10  11
ENDBRANCH   6  10
ENDBRANCH   5   6
ENDBRANCH   1   5
BRANCH   1  33
ATOM     33  O   UNL     1       7.831  -4.590 -20.284  0.00  0.00    -0.284 OA
BRANCH  33  34
ATOM     34  C   UNL     1       6.574  -5.225 -20.435  0.00  0.00    +0.206 C 
BRANCH  34  35
ATOM     35  C   UNL     1       6.738  -6.718 -20.660  0.00  0.00    +0.172 C 
BRANCH  35  36
ATOM     36  O   UNL     1       8.134  -6.952 -20.783  0.00  0.00    -0.387 OA
ATOM     37  H   UNL     1       8.528  -7.011 -19.891  0.00  0.00    +0.210 HD
ENDBRANCH  35  36
BRANCH  35  38
ATOM     38  C   UNL     1       6.060  -7.565 -19.559  0.00  0.00    +0.175 C 
BRANCH  38  39
ATOM     39  O   UNL     1       5.342  -6.748 -18.627  0.00  0.00    -0.387 OA
ATOM     40  H   UNL     1       5.551  -5.804 -18.760  0.00  0.00    +0.210 HD
ENDBRANCH  38  39
BRANCH  38  41
ATOM     41  C   UNL     1       5.064  -8.630 -20.091  0.00  0.00    +0.165 C 
BRANCH  41  42
ATOM     42  O   UNL     1       3.700  -8.173 -19.961  0.00  0.00    -0.387 OA
ATOM     43  H   UNL     1       3.318  -8.032 -20.840  0.00  0.00    +0.210 HD
ENDBRANCH  41  42
BRANCH  41  44
ATOM     44  C   UNL     1       5.310  -9.071 -21.551  0.00  0.00    +0.158 C 
BRANCH  44  51
ATOM     45  N   UNL     1       1.701  -6.895 -24.406  0.00  0.00    -0.272 N 
ATOM     46  C   UNL     1       2.968  -6.547 -24.038  0.00  0.00    +0.351 A 
ATOM     47  N   UNL     1       3.732  -7.420 -23.313  0.00  0.00    -0.173 NA
ATOM     48  C   UNL     1       3.371  -8.644 -23.083  0.00  0.00    +0.170 A 
ATOM     49  C   UNL     1       2.067  -9.136 -23.664  0.00  0.00    +0.171 A 
ATOM     50  C   UNL     1       1.165  -8.144 -24.345  0.00  0.00    +0.282 A 
ATOM     51  N   UNL     1       4.105  -9.517 -22.287  0.00  0.00    -0.320 N 
ATOM     52  C   UNL     1       3.770 -10.889 -22.326  0.00  0.00    +0.069 A 
ATOM     53  C   UNL     1       2.565 -11.287 -22.951  0.00  0.00    +0.089 A 
ATOM     54  N   UNL     1       1.702 -10.377 -23.577  0.00  0.00    -0.237 NA
ATOM     55  C   UNL     1       4.553 -11.897 -21.756  0.00  0.00    +0.031 A 
ATOM     56  C   UNL     1       4.149 -13.240 -21.744  0.00  0.00    -0.045 A 
ATOM     57  C   UNL     1       2.937 -13.619 -22.335  0.00  0.00    -0.045 A 
ATOM     58  C   UNL     1       2.162 -12.628 -22.944  0.00  0.00    +0.033 A 
ATOM     59  O   UNL     1       0.077  -8.446 -24.802  0.00  0.00    -0.265 OA
ATOM     60  O   UNL     1       3.388  -5.446 -24.346  0.00  0.00    -0.245 OA
ATOM     61  C   UNL     1       2.436 -15.037 -22.342  0.00  0.00    +0.044 C 
ATOM     62  C   UNL     1       5.021 -14.235 -21.045  0.00  0.00    +0.044 C 
ATOM     63  H   UNL     1       1.198  -6.190 -24.923  0.00  0.00    +0.174 HD
ENDBRANCH  44  51
ENDBRANCH  41  44
ENDBRANCH  38  41
ENDBRANCH  35  38
ENDBRANCH  34  35
ENDBRANCH  33  34
ENDBRANCH   1  33
TORSDOF 21
ENDMDL
MODEL 3
REMARK VINA RESULT:    -9.164     10.568     14.674
REMARK INTER + INTRA:         -20.763
REMARK INTER:                 -13.833
REMARK INTRA:                  -6.930
REMARK UNBOUND:                -2.491
REMARK  Name = 
REMARK  23 active torsions:
REMARK  status: ('A' for Active; 'I' for Inactive)
REMARK    1  A    between atoms: N_7  and  C_19
REMARK    2  A    between atoms: C_12  and  C_18
REMARK    3  A    between atoms: C_13  and  C_17
REMARK    4  A    between atoms: C_19  and  C_20
REMARK    5  A    between atoms: C_20  and  C_21
REMARK    6  A    between atoms: C_20  and  O_25
REMARK    7  A    between atoms: C_21  and  C_22
REMARK    8  A    between atoms: C_21  and  O_27
REMARK    9  A    between atoms: C_22  and  C_23
REMARK   10  A    between atoms: C_22  and  O_26
REMARK   11  A    between atoms: C_23  and  O_24
REMARK   12  A    between atoms: O_24  and  P_28
REMARK   13  A    between atoms: P_28  and  O_29
REMARK   14  A    between atoms: P_28  and  O_31
REMARK   15  A    between atoms: O_29  and  P_32
REMARK   16  A    between atoms: P_32  and  O_33
REMARK   17  A    between atoms: P_32  and  O_35
REMARK   18  A    between atoms: O_33  and  C_37
REMARK   19  A    between atoms: C_36  and  C_37
REMARK   20  A    between atoms: C_38  and  O_42
REMARK   21  A    between atoms: C_39  and  O_43
REMARK   22  A    between atoms: C_40  and  N_50
REMARK   23  A    between atoms: C_49  and  N_53
REMARK                            x       y       z     vdW  Elec       q    Type
REMARK                         _______ _______ _______ _____ _____    ______ ____
ROOT
ATOM      1  P   UNL     1      16.648  -6.259 -21.731  0.00  0.00    +0.483 P 
ATOM      2  O   UNL     1      15.735  -7.476 -21.627  0.00  0.00    -0.227 OA
ENDROOT
BRANCH   1   3
ATOM      3  O   UNL     1      17.747  -6.975 -20.604  0.00  0.00    -0.302 OA
ATOM      4  H   UNL     1      18.014  -7.896 -20.817  0.00  0.00    +0.222 HD
ENDBRANCH   1   3
BRANCH   1   5
ATOM      5  O   UNL     1      16.229  -5.223 -20.552  0.00  0.00    -0.186 OA
BRANCH   5   6
ATOM      6  P   UNL     1      15.699  -5.463 -19.060  0.00  0.00    +0.483 P 
ATOM      7  O   UNL     1      14.439  -4.791 -18.644  0.00  0.00    -0.227 OA
BRANCH   6   8
ATOM      8  O   UNL     1      15.694  -7.051 -18.782  0.00  0.00    -0.302 OA
ATOM      9  H   UNL     1      15.649  -7.521 -19.645  0.00  0.00    +0.222 HD
ENDBRANCH   6   8
BRANCH   6  10
ATOM     10  O   UNL     1      16.958  -5.107 -18.131  0.00  0.00    -0.284 OA
BRANCH  10  11
ATOM     11  C   UNL     1      16.650  -5.060 -16.765  0.00  0.00    +0.206 C 
BRANCH  11  12
ATOM     12  C   UNL     1      17.447  -4.007 -16.032  0.00  0.00    +0.178 C 
ATOM     13  C   UNL     1      16.476  -3.299 -15.116  0.00  0.00    +0.178 C 
ATOM     14  C   UNL     1      16.011  -2.098 -15.944  0.00  0.00    +0.195 C 
ATOM     15  C   UNL     1      17.231  -1.761 -16.808  0.00  0.00    +0.253 C 
ATOM     16  O   UNL     1      17.986  -3.009 -16.912  0.00  0.00    -0.346 OA
BRANCH  15  23
ATOM     17  N   UNL     1      19.049   0.219 -21.317  0.00  0.00    -0.219 NA
ATOM     18  C   UNL     1      19.418   0.537 -20.053  0.00  0.00    +0.225 A 
ATOM     19  N   UNL     1      18.916   0.099 -18.865  0.00  0.00    -0.216 NA
ATOM     20  C   UNL     1      17.854  -0.699 -19.069  0.00  0.00    +0.167 A 
ATOM     21  C   UNL     1      17.359  -1.083 -20.313  0.00  0.00    +0.147 A 
ATOM     22  C   UNL     1      18.050  -0.671 -21.462  0.00  0.00    +0.147 A 
ATOM     23  N   UNL     1      16.994  -1.297 -18.172  0.00  0.00    -0.286 N 
ATOM     24  C   UNL     1      15.904  -1.692 -18.917  0.00  0.00    +0.203 A 
ATOM     25  N   UNL     1      16.169  -1.753 -20.200  0.00  0.00    -0.231 NA
BRANCH  22  26
ATOM     26  N   UNL     1      17.666  -1.101 -22.732  0.00  0.00    -0.341 N 
ATOM     27  H   UNL     1      17.619  -0.324 -23.387  0.00  0.00    +0.144 HD
ATOM     28  H   UNL     1      18.203  -1.901 -23.036  0.00  0.00    +0.144 HD
ENDBRANCH  22  26
ENDBRANCH  15  23
BRANCH  14  29
ATOM     29  O   UNL     1      15.585  -1.071 -15.056  0.00  0.00    -0.385 OA
ATOM     30  H   UNL     1      16.403  -0.703 -14.652  0.00  0.00    +0.210 HD
ENDBRANCH  14  29
BRANCH  13  31
ATOM     31  O   UNL     1      17.104  -2.849 -13.916  0.00  0.00    -0.386 OA
ATOM     32  H   UNL     1      16.924  -3.485 -13.198  0.00  0.00    +0.210 HD
ENDBRANCH  13  31
ENDBRANCH  11  12
ENDBRANCH  10  11
ENDBRANCH   6  10
ENDBRANCH   5   6
ENDBRANCH   1   5
BRANCH   1  33
ATOM     33  O   UNL     1      15.547  -5.543 -22.858  0.00  0.00    -0.284 OA
BRANCH  33  34
ATOM     34  C   UNL     1      15.663  -4.136 -22.746  0.00  0.00    +0.206 C 
BRANCH  34  35
ATOM     35  C   UNL     1      14.298  -3.471 -22.752  0.00  0.00    +0.172 C 
BRANCH  35  36
ATOM     36  O   UNL     1      13.828  -3.512 -21.412  0.00  0.00    -0.387 OA
ATOM     37  H   UNL     1      14.323  -2.859 -20.880  0.00  0.00    +0.210 HD
ENDBRANCH  35  36
BRANCH  35  38
ATOM     38  C   UNL     1      14.330  -2.050 -23.358  0.00  0.00    +0.175 C 
BRANCH  38  39
ATOM     39  O   UNL     1      15.273  -1.951 -24.432  0.00  0.00    -0.387 OA
ATOM     40  H   UNL     1      14.816  -1.917 -25.293  0.00  0.00    +0.210 HD
ENDBRANCH  38  39
BRANCH  38  41
ATOM     41  C   UNL     1      12.965  -1.554 -23.904  0.00  0.00    +0.165 C 
BRANCH  41  42
ATOM     42  O   UNL     1      11.916  -2.506 -23.619  0.00  0.00    -0.387 OA
ATOM     43  H   UNL     1      11.335  -2.590 -24.389  0.00  0.00    +0.210 HD
ENDBRANCH  41  42
BRANCH  41  44
ATOM     44  C   UNL     1      12.533  -0.161 -23.393  0.00  0.00    +0.158 C 
BRANCH  44  51
ATOM     45  N   UNL     1      10.635  -1.401 -18.835  0.00  0.00    -0.272 N 
ATOM     46  C   UNL     1      10.545  -1.938 -20.086  0.00  0.00    +0.351 A 
ATOM     47  N   UNL     1      11.269  -1.398 -21.114  0.00  0.00    -0.173 NA
ATOM     48  C   UNL     1      12.173  -0.485 -20.932  0.00  0.00    +0.170 A 
ATOM     49  C   UNL     1      12.457  -0.018 -19.525  0.00  0.00    +0.171 A 
ATOM     50  C   UNL     1      11.573  -0.511 -18.413  0.00  0.00    +0.282 A 
ATOM     51  N   UNL     1      12.862   0.121 -21.977  0.00  0.00    -0.320 N 
ATOM     52  C   UNL     1      14.002   0.893 -21.658  0.00  0.00    +0.069 A 
ATOM     53  C   UNL     1      14.247   1.234 -20.307  0.00  0.00    +0.089 A 
ATOM     54  N   UNL     1      13.426   0.800 -19.257  0.00  0.00    -0.237 NA
ATOM     55  C   UNL     1      14.907   1.372 -22.609  0.00  0.00    +0.031 A 
ATOM     56  C   UNL     1      15.983   2.203 -22.263  0.00  0.00    -0.045 A 
ATOM     57  C   UNL     1      16.197   2.564 -20.927  0.00  0.00    -0.045 A 
ATOM     58  C   UNL     1      15.323   2.060 -19.960  0.00  0.00    +0.033 A 
ATOM     59  O   UNL     1      11.705  -0.151 -17.257  0.00  0.00    -0.265 OA
ATOM     60  O   UNL     1       9.797  -2.881 -20.269  0.00  0.00    -0.245 OA
ATOM     61  C   UNL     1      17.320   3.464 -20.491  0.00  0.00    +0.044 C 
ATOM     62  C   UNL     1      16.855   2.724 -23.362  0.00  0.00    +0.044 C 
ATOM     63  H   UNL     1      10.058  -1.844 -18.138  0.00  0.00    +0.174 HD
ENDBRANCH  44  51
ENDBRANCH  41  44
ENDBRANCH  38  41
ENDBRANCH  35  38
ENDBRANCH  34  35
ENDBRANCH  33  34
ENDBRANCH   1  33
TORSDOF 21
ENDMDL
MODEL 4
REMARK VINA RESULT:    -9.000      2.810      4.074
REMARK INTER + INTRA:         -20.436
REMARK INTER:                 -17.681
REMARK INTRA:                  -2.755
REMARK UNBOUND:                -2.491
REMARK  Name = 
REMARK  23 active torsions:
REMARK  status: ('A' for Active; 'I' for Inactive)
REMARK    1  A    between atoms: N_7  and  C_19
REMARK    2  A    between atoms: C_12  and  C_18
REMARK    3  A    between atoms: C_13  and  C_17
REMARK    4  A    between atoms: C_19  and  C_20
REMARK    5  A    between atoms: C_20  and  C_21
REMARK    6  A    between atoms: C_20  and  O_25
REMARK    7  A    between atoms: C_21  and  C_22
REMARK    8  A    between atoms: C_21  and  O_27
REMARK    9  A    between atoms: C_22  and  C_23
REMARK   10  A    between atoms: C_22  and  O_26
REMARK   11  A    between atoms: C_23  and  O_24
REMARK   12  A    between atoms: O_24  and  P_28
REMARK   13  A    between atoms: P_28  and  O_29
REMARK   14  A    between atoms: P_28  and  O_31
REMARK   15  A    between atoms: O_29  and  P_32
REMARK   16  A    between atoms: P_32  and  O_33
REMARK   17  A    between atoms: P_32  and  O_35
REMARK   18  A    between atoms: O_33  and  C_37
REMARK   19  A    between atoms: C_36  and  C_37
REMARK   20  A    between atoms: C_38  and  O_42
REMARK   21  A    between atoms: C_39  and  O_43
REMARK   22  A    between atoms: C_40  and  N_50
REMARK   23  A    between atoms: C_49  and  N_53
REMARK                            x       y       z     vdW  Elec       q    Type
REMARK                         _______ _______ _______ _____ _____    ______ ____
ROOT
ATOM      1  P   UNL     1       5.492  -7.436 -19.253  0.00  0.00    +0.483 P 
ATOM      2  O   UNL     1       4.414  -6.833 -20.149  0.00  0.00    -0.227 OA
ENDROOT
BRANCH   1   3
ATOM      3  O   UNL     1       5.195  -6.219 -18.060  0.00  0.00    -0.302 OA
ATOM      4  H   UNL     1       4.488  -6.438 -17.415  0.00  0.00    +0.222 HD
ENDBRANCH   1   3
BRANCH   1   5
ATOM      5  O   UNL     1       6.889  -6.674 -19.577  0.00  0.00    -0.186 OA
BRANCH   5   6
ATOM      6  P   UNL     1       7.214  -5.361 -20.434  0.00  0.00    +0.483 P 
ATOM      7  O   UNL     1       8.594  -5.189 -20.963  0.00  0.00    -0.227 OA
BRANCH   6   8
ATOM      8  O   UNL     1       6.077  -5.211 -21.568  0.00  0.00    -0.302 OA
ATOM      9  H   UNL     1       5.426  -5.940 -21.458  0.00  0.00    +0.222 HD
ENDBRANCH   6   8
BRANCH   6  10
ATOM     10  O   UNL     1       6.723  -4.149 -19.504  0.00  0.00    -0.284 OA
BRANCH  10  11
ATOM     11  C   UNL     1       7.772  -3.454 -18.890  0.00  0.00    +0.206 C 
BRANCH  11  12
ATOM     12  C   UNL     1       7.611  -1.956 -18.998  0.00  0.00    +0.178 C 
ATOM     13  C   UNL     1       7.727  -1.620 -20.467  0.00  0.00    +0.178 C 
ATOM     14  C   UNL     1       9.209  -1.281 -20.642  0.00  0.00    +0.195 C 
ATOM     15  C   UNL     1       9.604  -0.677 -19.290  0.00  0.00    +0.253 C 
ATOM     16  O   UNL     1       8.656  -1.237 -18.327  0.00  0.00    -0.346 OA
BRANCH  15  23
ATOM     17  N   UNL     1      14.678   0.602 -18.867  0.00  0.00    -0.219 NA
ATOM     18  C   UNL     1      13.872   0.718 -19.949  0.00  0.00    +0.225 A 
ATOM     19  N   UNL     1      12.577   0.328 -20.115  0.00  0.00    -0.216 NA
ATOM     20  C   UNL     1      12.141  -0.328 -19.026  0.00  0.00    +0.167 A 
ATOM     21  C   UNL     1      12.875  -0.537 -17.861  0.00  0.00    +0.147 A 
ATOM     22  C   UNL     1      14.153   0.034 -17.765  0.00  0.00    +0.147 A 
ATOM     23  N   UNL     1      10.942  -0.963 -18.780  0.00  0.00    -0.286 N 
ATOM     24  C   UNL     1      11.167  -1.756 -17.675  0.00  0.00    +0.203 A 
ATOM     25  N   UNL     1      12.229  -1.385 -17.001  0.00  0.00    -0.231 NA
BRANCH  22  26
ATOM     26  N   UNL     1      14.900  -0.053 -16.592  0.00  0.00    -0.341 N 
ATOM     27  H   UNL     1      15.504   0.757 -16.476  0.00  0.00    +0.144 HD
ATOM     28  H   UNL     1      14.324  -0.290 -15.795  0.00  0.00    +0.144 HD
ENDBRANCH  22  26
ENDBRANCH  15  23
BRANCH  14  29
ATOM     29  O   UNL     1       9.348  -0.417 -21.764  0.00  0.00    -0.385 OA
ATOM     30  H   UNL     1       8.638   0.259 -21.678  0.00  0.00    +0.210 HD
ENDBRANCH  14  29
BRANCH  13  31
ATOM     31  O   UNL     1       6.924  -0.495 -20.822  0.00  0.00    -0.386 OA
ATOM     32  H   UNL     1       5.997  -0.664 -20.566  0.00  0.00    +0.210 HD
ENDBRANCH  13  31
ENDBRANCH  11  12
ENDBRANCH  10  11
ENDBRANCH   6  10
ENDBRANCH   5   6
ENDBRANCH   1   5
BRANCH   1  33
ATOM     33  O   UNL     1       5.788  -8.653 -20.447  0.00  0.00    -0.284 OA
BRANCH  33  34
ATOM     34  C   UNL     1       4.534  -9.121 -20.910  0.00  0.00    +0.206 C 
BRANCH  34  35
ATOM     35  C   UNL     1       4.571  -9.400 -22.403  0.00  0.00    +0.172 C 
BRANCH  35  36
ATOM     36  O   UNL     1       4.850 -10.786 -22.543  0.00  0.00    -0.387 OA
ATOM     37  H   UNL     1       4.530 -11.089 -23.415  0.00  0.00    +0.210 HD
ENDBRANCH  35  36
BRANCH  35  38
ATOM     38  C   UNL     1       3.282  -8.948 -23.125  0.00  0.00    +0.175 C 
BRANCH  38  39
ATOM     39  O   UNL     1       3.001  -7.562 -22.894  0.00  0.00    -0.387 OA
ATOM     40  H   UNL     1       2.074  -7.354 -23.119  0.00  0.00    +0.210 HD
ENDBRANCH  38  39
BRANCH  38  41
ATOM     41  C   UNL     1       3.300  -9.157 -24.663  0.00  0.00    +0.165 C 
BRANCH  41  42
ATOM     42  O   UNL     1       4.656  -9.224 -25.160  0.00  0.00    -0.387 OA
ATOM     43  H   UNL     1       5.145  -8.437 -24.876  0.00  0.00    +0.210 HD
ENDBRANCH  41  42
BRANCH  41  44
ATOM     44  C   UNL     1       2.523 -10.399 -25.154  0.00  0.00    +0.158 C 
BRANCH  44  51
ATOM     45  N   UNL     1      -1.815  -7.969 -26.250  0.00  0.00    -0.272 N 
ATOM     46  C   UNL     1      -0.623  -8.133 -26.893  0.00  0.00    +0.351 A 
ATOM     47  N   UNL     1       0.338  -8.943 -26.351  0.00  0.00    -0.173 NA
ATOM     48  C   UNL     1       0.120  -9.700 -25.322  0.00  0.00    +0.170 A 
ATOM     49  C   UNL     1      -1.261  -9.711 -24.711  0.00  0.00    +0.171 A 
ATOM     50  C   UNL     1      -2.278  -8.726 -25.218  0.00  0.00    +0.282 A 
ATOM     51  N   UNL     1       1.109 -10.471 -24.720  0.00  0.00    -0.320 N 
ATOM     52  C   UNL     1       0.706 -11.455 -23.789  0.00  0.00    +0.069 A 
ATOM     53  C   UNL     1      -0.625 -11.449 -23.312  0.00  0.00    +0.089 A 
ATOM     54  N   UNL     1      -1.584 -10.530 -23.759  0.00  0.00    -0.237 NA
ATOM     55  C   UNL     1       1.560 -12.437 -23.279  0.00  0.00    +0.031 A 
ATOM     56  C   UNL     1       1.147 -13.349 -22.296  0.00  0.00    -0.045 A 
ATOM     57  C   UNL     1      -0.165 -13.312 -21.805  0.00  0.00    -0.045 A 
ATOM     58  C   UNL     1      -1.041 -12.361 -22.333  0.00  0.00    +0.033 A 
ATOM     59  O   UNL     1      -3.400  -8.637 -24.753  0.00  0.00    -0.265 OA
ATOM     60  O   UNL     1      -0.428  -7.532 -27.934  0.00  0.00    -0.245 OA
ATOM     61  C   UNL     1      -0.667 -14.247 -20.740  0.00  0.00    +0.044 C 
ATOM     62  C   UNL     1       2.154 -14.316 -21.761  0.00  0.00    +0.044 C 
ATOM     63  H   UNL     1      -2.462  -7.344 -26.704  0.00  0.00    +0.174 HD
ENDBRANCH  44  51
ENDBRANCH  41  44
ENDBRANCH  38  41
ENDBRANCH  35  38
ENDBRANCH  34  35
ENDBRANCH  33  34
ENDBRANCH   1  33
TORSDOF 21
ENDMDL
MODEL 5
REMARK VINA RESULT:    -8.977      9.761     12.709
REMARK INTER + INTRA:         -20.390
REMARK INTER:                 -15.690
REMARK INTRA:                  -4.700
REMARK UNBOUND:                -2.491
REMARK  Name = 
REMARK  23 active torsions:
REMARK  status: ('A' for Active; 'I' for Inactive)
REMARK    1  A    between atoms: N_7  and  C_19
REMARK    2  A    between atoms: C_12  and  C_18
REMARK    3  A    between atoms: C_13  and  C_17
REMARK    4  A    between atoms: C_19  and  C_20
REMARK    5  A    between atoms: C_20  and  C_21
REMARK    6  A    between atoms: C_20  and  O_25
REMARK    7  A    between atoms: C_21  and  C_22
REMARK    8  A    between atoms: C_21  and  O_27
REMARK    9  A    between atoms: C_22  and  C_23
REMARK   10  A    between atoms: C_22  and  O_26
REMARK   11  A    between atoms: C_23  and  O_24
REMARK   12  A    between atoms: O_24  and  P_28
REMARK   13  A    between atoms: P_28  and  O_29
REMARK   14  A    between atoms: P_28  and  O_31
REMARK   15  A    between atoms: O_29  and  P_32
REMARK   16  A    between atoms: P_32  and  O_33
REMARK   17  A    between atoms: P_32  and  O_35
REMARK   18  A    between atoms: O_33  and  C_37
REMARK   19  A    between atoms: C_36  and  C_37
REMARK   20  A    between atoms: C_38  and  O_42
REMARK   21  A    between atoms: C_39  and  O_43
REMARK   22  A    between atoms: C_40  and  N_50
REMARK   23  A    between atoms: C_49  and  N_53
REMARK                            x       y       z     vdW  Elec       q    Type
REMARK                         _______ _______ _______ _____ _____    ______ ____
ROOT
ATOM      1  P   UNL     1      16.804  -1.925 -16.311  0.00  0.00    +0.483 P 
ATOM      2  O   UNL     1      15.795  -2.793 -15.565  0.00  0.00    -0.227 OA
ENDROOT
BRANCH   1   3
ATOM      3  O   UNL     1      16.208  -0.518 -15.500  0.00  0.00    -0.302 OA
ATOM      4  H   UNL     1      16.591   0.330 -15.813  0.00  0.00    +0.222 HD
ENDBRANCH   1   3
BRANCH   1   5
ATOM      5  O   UNL     1      16.081  -1.367 -17.654  0.00  0.00    -0.186 OA
BRANCH   5   6
ATOM      6  P   UNL     1      14.537  -1.180 -18.035  0.00  0.00    +0.483 P 
ATOM      7  O   UNL     1      13.585  -2.264 -17.669  0.00  0.00    -0.227 OA
BRANCH   6   8
ATOM      8  O   UNL     1      14.069   0.275 -17.521  0.00  0.00    -0.302 OA
ATOM      9  H   UNL     1      13.574   0.719 -18.246  0.00  0.00    +0.222 HD
ENDBRANCH   6   8
BRANCH   6  10
ATOM     10  O   UNL     1      14.553  -0.838 -19.603  0.00  0.00    -0.284 OA
BRANCH  10  11
ATOM     11  C   UNL     1      14.939   0.479 -19.884  0.00  0.00    +0.206 C 
BRANCH  11  12
ATOM     12  C   UNL     1      14.124   1.091 -20.998  0.00  0.00    +0.178 C 
ATOM     13  C   UNL     1      13.505   2.349 -20.433  0.00  0.00    +0.178 C 
ATOM     14  C   UNL     1      12.132   1.884 -19.942  0.00  0.00    +0.195 C 
ATOM     15  C   UNL     1      11.763   0.757 -20.913  0.00  0.00    +0.253 C 
ATOM     16  O   UNL     1      13.039   0.250 -21.417  0.00  0.00    -0.346 OA
BRANCH  15  23
ATOM     17  N   UNL     1       7.268  -1.421 -19.298  0.00  0.00    -0.219 NA
ATOM     18  C   UNL     1       7.707  -0.155 -19.094  0.00  0.00    +0.225 A 
ATOM     19  N   UNL     1       8.895   0.418 -19.433  0.00  0.00    -0.216 NA
ATOM     20  C   UNL     1       9.720  -0.496 -19.972  0.00  0.00    +0.167 A 
ATOM     21  C   UNL     1       9.402  -1.830 -20.212  0.00  0.00    +0.147 A 
ATOM     22  C   UNL     1       8.096  -2.264 -19.941  0.00  0.00    +0.147 A 
ATOM     23  N   UNL     1      11.033  -0.390 -20.382  0.00  0.00    -0.286 N 
ATOM     24  C   UNL     1      11.482  -1.687 -20.511  0.00  0.00    +0.203 A 
ATOM     25  N   UNL     1      10.500  -2.551 -20.603  0.00  0.00    -0.231 NA
BRANCH  22  26
ATOM     26  N   UNL     1       7.683  -3.559 -20.250  0.00  0.00    -0.341 N 
ATOM     27  H   UNL     1       8.292  -4.254 -19.824  0.00  0.00    +0.144 HD
ATOM     28  H   UNL     1       6.692  -3.687 -20.092  0.00  0.00    +0.144 HD
ENDBRANCH  22  26
ENDBRANCH  15  23
BRANCH  14  29
ATOM     29  O   UNL     1      11.250   3.000 -19.933  0.00  0.00    -0.385 OA
ATOM     30  H   UNL     1      10.961   3.127 -20.865  0.00  0.00    +0.210 HD
ENDBRANCH  14  29
BRANCH  13  31
ATOM     31  O   UNL     1      13.350   3.361 -21.426  0.00  0.00    -0.386 OA
ATOM     32  H   UNL     1      13.462   4.239 -21.015  0.00  0.00    +0.210 HD
ENDBRANCH  13  31
ENDBRANCH  11  12
ENDBRANCH  10  11
ENDBRANCH   6  10
ENDBRANCH   5   6
ENDBRANCH   1   5
BRANCH   1  33
ATOM     33  O   UNL     1      17.400  -3.333 -17.122  0.00  0.00    -0.284 OA
BRANCH  33  34
ATOM     34  C   UNL     1      16.473  -4.382 -16.909  0.00  0.00    +0.206 C 
BRANCH  34  35
ATOM     35  C   UNL     1      15.967  -4.943 -18.226  0.00  0.00    +0.172 C 
BRANCH  35  36
ATOM     36  O   UNL     1      14.549  -4.875 -18.170  0.00  0.00    -0.387 OA
ATOM     37  H   UNL     1      14.271  -4.765 -17.239  0.00  0.00    +0.210 HD
ENDBRANCH  35  36
BRANCH  35  38
ATOM     38  C   UNL     1      16.576  -4.226 -19.452  0.00  0.00    +0.175 C 
BRANCH  38  39
ATOM     39  O   UNL     1      17.940  -4.608 -19.667  0.00  0.00    -0.387 OA
ATOM     40  H   UNL     1      18.037  -5.089 -20.510  0.00  0.00    +0.210 HD
ENDBRANCH  38  39
BRANCH  38  41
ATOM     41  C   UNL     1      15.819  -4.477 -20.784  0.00  0.00    +0.165 C 
BRANCH  41  42
ATOM     42  O   UNL     1      14.668  -3.611 -20.896  0.00  0.00    -0.387 OA
ATOM     43  H   UNL     1      14.960  -2.695 -21.013  0.00  0.00    +0.210 HD
ENDBRANCH  41  42
BRANCH  41  44
ATOM     44  C   UNL     1      16.685  -4.331 -22.055  0.00  0.00    +0.158 C 
BRANCH  44  51
ATOM     45  N   UNL     1      14.391  -1.050 -25.201  0.00  0.00    -0.272 N 
ATOM     46  C   UNL     1      15.351  -0.938 -24.237  0.00  0.00    +0.351 A 
ATOM     47  N   UNL     1      15.826  -2.061 -23.615  0.00  0.00    -0.173 NA
ATOM     48  C   UNL     1      15.525  -3.260 -24.005  0.00  0.00    +0.170 A 
ATOM     49  C   UNL     1      14.635  -3.427 -25.212  0.00  0.00    +0.171 A 
ATOM     50  C   UNL     1      14.005  -2.202 -25.814  0.00  0.00    +0.282 A 
ATOM     51  N   UNL     1      15.944  -4.405 -23.335  0.00  0.00    -0.320 N 
ATOM     52  C   UNL     1      15.792  -5.648 -23.991  0.00  0.00    +0.069 A 
ATOM     53  C   UNL     1      15.001  -5.718 -25.161  0.00  0.00    +0.089 A 
ATOM     54  N   UNL     1      14.390  -4.591 -25.729  0.00  0.00    -0.237 NA
ATOM     55  C   UNL     1      16.362  -6.841 -23.538  0.00  0.00    +0.031 A 
ATOM     56  C   UNL     1      16.125  -8.070 -24.169  0.00  0.00    -0.045 A 
ATOM     57  C   UNL     1      15.310  -8.134 -25.308  0.00  0.00    -0.045 A 
ATOM     58  C   UNL     1      14.765  -6.944 -25.796  0.00  0.00    +0.033 A 
ATOM     59  O   UNL     1      13.240  -2.250 -26.761  0.00  0.00    -0.265 OA
ATOM     60  O   UNL     1      15.750   0.170 -23.931  0.00  0.00    -0.245 OA
ATOM     61  C   UNL     1      15.000  -9.420 -26.022  0.00  0.00    +0.044 C 
ATOM     62  C   UNL     1      16.721  -9.302 -23.566  0.00  0.00    +0.044 C 
ATOM     63  H   UNL     1      14.082  -0.177 -25.598  0.00  0.00    +0.174 HD
ENDBRANCH  44  51
ENDBRANCH  41  44
ENDBRANCH  38  41
ENDBRANCH  35  38
ENDBRANCH  34  35
ENDBRANCH  33  34
ENDBRANCH   1  33
TORSDOF 21
ENDMDL
MODEL 6
REMARK VINA RESULT:    -8.972     10.735     14.020
REMARK INTER + INTRA:         -20.379
REMARK INTER:                 -15.003
REMARK INTRA:                  -5.377
REMARK UNBOUND:                -2.491
REMARK  Name = 
REMARK  23 active torsions:
REMARK  status: ('A' for Active; 'I' for Inactive)
REMARK    1  A    between atoms: N_7  and  C_19
REMARK    2  A    between atoms: C_12  and  C_18
REMARK    3  A    between atoms: C_13  and  C_17
REMARK    4  A    between atoms: C_19  and  C_20
REMARK    5  A    between atoms: C_20  and  C_21
REMARK    6  A    between atoms: C_20  and  O_25
REMARK    7  A    between atoms: C_21  and  C_22
REMARK    8  A    between atoms: C_21  and  O_27
REMARK    9  A    between atoms: C_22  and  C_23
REMARK   10  A    between atoms: C_22  and  O_26
REMARK   11  A    between atoms: C_23  and  O_24
REMARK   12  A    between atoms: O_24  and  P_28
REMARK   13  A    between atoms: P_28  and  O_29
REMARK   14  A    between atoms: P_28  and  O_31
REMARK   15  A    between atoms: O_29  and  P_32
REMARK   16  A    between atoms: P_32  and  O_33
REMARK   17  A    between atoms: P_32  and  O_35
REMARK   18  A    between atoms: O_33  and  C_37
REMARK   19  A    between atoms: C_36  and  C_37
REMARK   20  A    between atoms: C_38  and  O_42
REMARK   21  A    between atoms: C_39  and  O_43
REMARK   22  A    between atoms: C_40  and  N_50
REMARK   23  A    between atoms: C_49  and  N_53
REMARK                            x       y       z     vdW  Elec       q    Type
REMARK                         _______ _______ _______ _____ _____    ______ ____
ROOT
ATOM      1  P   UNL     1      15.951  -1.323 -16.541  0.00  0.00    +0.483 P 
ATOM      2  O   UNL     1      15.145  -0.334 -15.705  0.00  0.00    -0.227 OA
ENDROOT
BRANCH   1   3
ATOM      3  O   UNL     1      16.762  -0.014 -17.328  0.00  0.00    -0.302 OA
ATOM      4  H   UNL     1      17.704   0.098 -17.076  0.00  0.00    +0.222 HD
ENDBRANCH   1   3
BRANCH   1   5
ATOM      5  O   UNL     1      15.148  -1.566 -17.932  0.00  0.00    -0.186 OA
BRANCH   5   6
ATOM      6  P   UNL     1      13.582  -1.647 -18.259  0.00  0.00    +0.483 P 
ATOM      7  O   UNL     1      13.152  -2.416 -19.457  0.00  0.00    -0.227 OA
BRANCH   6   8
ATOM      8  O   UNL     1      12.813  -2.087 -16.912  0.00  0.00    -0.302 OA
ATOM      9  H   UNL     1      12.168  -1.383 -16.675  0.00  0.00    +0.222 HD
ENDBRANCH   6   8
BRANCH   6  10
ATOM     10  O   UNL     1      13.099  -0.116 -18.267  0.00  0.00    -0.284 OA
BRANCH  10  11
ATOM     11  C   UNL     1      11.808   0.067 -17.756  0.00  0.00    +0.206 C 
BRANCH  11  12
ATOM     12  C   UNL     1      10.923   0.850 -18.696  0.00  0.00    +0.178 C 
ATOM     13  C   UNL     1       9.783  -0.068 -19.072  0.00  0.00    +0.178 C 
ATOM     14  C   UNL     1      10.261  -0.721 -20.371  0.00  0.00    +0.195 C 
ATOM     15  C   UNL     1      11.127   0.362 -21.023  0.00  0.00    +0.253 C 
ATOM     16  O   UNL     1      11.589   1.202 -19.918  0.00  0.00    -0.346 OA
BRANCH  15  23
ATOM     17  N   UNL     1      13.356  -2.556 -24.774  0.00  0.00    -0.219 NA
ATOM     18  C   UNL     1      12.353  -2.899 -23.931  0.00  0.00    +0.225 A 
ATOM     19  N   UNL     1      11.805  -2.196 -22.901  0.00  0.00    -0.216 NA
ATOM     20  C   UNL     1      12.467  -1.041 -22.716  0.00  0.00    +0.167 A 
ATOM     21  C   UNL     1      13.527  -0.584 -23.495  0.00  0.00    +0.147 A 
ATOM     22  C   UNL     1      13.910  -1.340 -24.612  0.00  0.00    +0.147 A 
ATOM     23  N   UNL     1      12.317  -0.064 -21.754  0.00  0.00    -0.286 N 
ATOM     24  C   UNL     1      13.465   0.696 -21.823  0.00  0.00    +0.203 A 
ATOM     25  N   UNL     1      14.105   0.536 -22.956  0.00  0.00    -0.231 NA
BRANCH  22  26
ATOM     26  N   UNL     1      14.896  -0.892 -25.488  0.00  0.00    -0.341 N 
ATOM     27  H   UNL     1      15.828  -1.105 -25.139  0.00  0.00    +0.144 HD
ATOM     28  H   UNL     1      14.709  -1.173 -26.441  0.00  0.00    +0.144 HD
ENDBRANCH  22  26
ENDBRANCH  15  23
BRANCH  14  29
ATOM     29  O   UNL     1       9.123  -1.130 -21.121  0.00  0.00    -0.385 OA
ATOM     30  H   UNL     1       8.486  -1.500 -20.468  0.00  0.00    +0.210 HD
ENDBRANCH  14  29
BRANCH  13  31
ATOM     31  O   UNL     1       8.573   0.651 -19.304  0.00  0.00    -0.386 OA
ATOM     32  H   UNL     1       8.586   1.481 -18.792  0.00  0.00    +0.210 HD
ENDBRANCH  13  31
ENDBRANCH  11  12
ENDBRANCH  10  11
ENDBRANCH   6  10
ENDBRANCH   5   6
ENDBRANCH   1   5
BRANCH   1  33
ATOM     33  O   UNL     1      15.139  -2.633 -15.753  0.00  0.00    -0.284 OA
BRANCH  33  34
ATOM     34  C   UNL     1      16.107  -3.616 -15.436  0.00  0.00    +0.206 C 
BRANCH  34  35
ATOM     35  C   UNL     1      15.607  -5.008 -15.779  0.00  0.00    +0.172 C 
BRANCH  35  36
ATOM     36  O   UNL     1      14.244  -4.862 -16.151  0.00  0.00    -0.387 OA
ATOM     37  H   UNL     1      13.981  -5.622 -16.707  0.00  0.00    +0.210 HD
ENDBRANCH  35  36
BRANCH  35  38
ATOM     38  C   UNL     1      16.474  -5.705 -16.852  0.00  0.00    +0.175 C 
BRANCH  38  39
ATOM     39  O   UNL     1      16.712  -7.081 -16.531  0.00  0.00    -0.387 OA
ATOM     40  H   UNL     1      17.334  -7.483 -17.167  0.00  0.00    +0.210 HD
ENDBRANCH  38  39
BRANCH  38  41
ATOM     41  C   UNL     1      15.875  -5.670 -18.284  0.00  0.00    +0.165 C 
BRANCH  41  42
ATOM     42  O   UNL     1      15.281  -4.382 -18.564  0.00  0.00    -0.387 OA
ATOM     43  H   UNL     1      15.783  -3.938 -19.264  0.00  0.00    +0.210 HD
ENDBRANCH  41  42
BRANCH  41  44
ATOM     44  C   UNL     1      16.874  -6.019 -19.410  0.00  0.00    +0.158 C 
BRANCH  44  51
ATOM     45  N   UNL     1      17.787  -1.219 -20.841  0.00  0.00    -0.272 N 
ATOM     46  C   UNL     1      18.238  -2.017 -19.830  0.00  0.00    +0.351 A 
ATOM     47  N   UNL     1      17.852  -3.329 -19.773  0.00  0.00    -0.173 NA
ATOM     48  C   UNL     1      17.194  -3.909 -20.728  0.00  0.00    +0.170 A 
ATOM     49  C   UNL     1      16.864  -3.113 -21.967  0.00  0.00    +0.171 A 
ATOM     50  C   UNL     1      17.168  -1.641 -21.977  0.00  0.00    +0.282 A 
ATOM     51  N   UNL     1      16.734  -5.219 -20.648  0.00  0.00    -0.320 N 
ATOM     52  C   UNL     1      16.275  -5.833 -21.836  0.00  0.00    +0.069 A 
ATOM     53  C   UNL     1      16.056  -5.036 -22.983  0.00  0.00    +0.089 A 
ATOM     54  N   UNL     1      16.317  -3.659 -23.008  0.00  0.00    -0.237 NA
ATOM     55  C   UNL     1      15.996  -7.198 -21.947  0.00  0.00    +0.031 A 
ATOM     56  C   UNL     1      15.466  -7.759 -23.118  0.00  0.00    -0.045 A 
ATOM     57  C   UNL     1      15.219  -6.954 -24.238  0.00  0.00    -0.045 A 
ATOM     58  C   UNL     1      15.530  -5.595 -24.155  0.00  0.00    +0.033 A 
ATOM     59  O   UNL     1      16.895  -0.916 -22.917  0.00  0.00    -0.265 OA
ATOM     60  O   UNL     1      18.964  -1.535 -18.979  0.00  0.00    -0.245 OA
ATOM     61  C   UNL     1      14.636  -7.487 -25.517  0.00  0.00    +0.044 C 
ATOM     62  C   UNL     1      15.131  -9.217 -23.115  0.00  0.00    +0.044 C 
ATOM     63  H   UNL     1      18.103  -0.263 -20.802  0.00  0.00    +0.174 HD
ENDBRANCH  44  51
ENDBRANCH  41  44
ENDBRANCH  38  41
ENDBRANCH  35  38
ENDBRANCH  34  35
ENDBRANCH  33  34
ENDBRANCH   1  33
TORSDOF 21
ENDMDL
MODEL 7
REMARK VINA RESULT:    -8.759     11.190     15.312
REMARK INTER + INTRA:         -19.956
REMARK INTER:                 -15.227
REMARK INTRA:                  -4.729
REMARK UNBOUND:                -2.491
REMARK  Name = 
REMARK  23 active torsions:
REMARK  status: ('A' for Active; 'I' for Inactive)
REMARK    1  A    between atoms: N_7  and  C_19
REMARK    2  A    between atoms: C_12  and  C_18
REMARK    3  A    between atoms: C_13  and  C_17
REMARK    4  A    between atoms: C_19  and  C_20
REMARK    5  A    between atoms: C_20  and  C_21
REMARK    6  A    between atoms: C_20  and  O_25
REMARK    7  A    between atoms: C_21  and  C_22
REMARK    8  A    between atoms: C_21  and  O_27
REMARK    9  A    between atoms: C_22  and  C_23
REMARK   10  A    between atoms: C_22  and  O_26
REMARK   11  A    between atoms: C_23  and  O_24
REMARK   12  A    between atoms: O_24  and  P_28
REMARK   13  A    between atoms: P_28  and  O_29
REMARK   14  A    between atoms: P_28  and  O_31
REMARK   15  A    between atoms: O_29  and  P_32
REMARK   16  A    between atoms: P_32  and  O_33
REMARK   17  A    between atoms: P_32  and  O_35
REMARK   18  A    between atoms: O_33  and  C_37
REMARK   19  A    between atoms: C_36  and  C_37
REMARK   20  A    between atoms: C_38  and  O_42
REMARK   21  A    between atoms: C_39  and  O_43
REMARK   22  A    between atoms: C_40  and  N_50
REMARK   23  A    between atoms: C_49  and  N_53
REMARK                            x       y       z     vdW  Elec       q    Type
REMARK                         _______ _______ _______ _____ _____    ______ ____
ROOT
ATOM      1  P   UNL     1      20.467   1.825 -17.490  0.00  0.00    +0.483 P 
ATOM      2  O   UNL     1      21.623   1.063 -18.130  0.00  0.00    -0.227 OA
ENDROOT
BRANCH   1   3
ATOM      3  O   UNL     1      21.318   1.875 -15.986  0.00  0.00    -0.302 OA
ATOM      4  H   UNL     1      22.082   2.491 -15.965  0.00  0.00    +0.222 HD
ENDBRANCH   1   3
BRANCH   1   5
ATOM      5  O   UNL     1      19.473   0.736 -16.808  0.00  0.00    -0.186 OA
BRANCH   5   6
ATOM      6  P   UNL     1      19.551  -0.055 -15.418  0.00  0.00    +0.483 P 
ATOM      7  O   UNL     1      20.797  -0.804 -15.102  0.00  0.00    -0.227 OA
BRANCH   6   8
ATOM      8  O   UNL     1      19.103   0.956 -14.243  0.00  0.00    -0.302 OA
ATOM      9  H   UNL     1      19.206   0.497 -13.379  0.00  0.00    +0.222 HD
ENDBRANCH   6   8
BRANCH   6  10
ATOM     10  O   UNL     1      18.230  -0.966 -15.405  0.00  0.00    -0.284 OA
BRANCH  10  11
ATOM     11  C   UNL     1      17.848  -1.416 -16.675  0.00  0.00    +0.206 C 
BRANCH  11  12
ATOM     12  C   UNL     1      16.591  -0.742 -17.170  0.00  0.00    +0.178 C 
ATOM     13  C   UNL     1      15.593  -0.815 -16.038  0.00  0.00    +0.178 C 
ATOM     14  C   UNL     1      14.800  -2.088 -16.340  0.00  0.00    +0.195 C 
ATOM     15  C   UNL     1      14.809  -2.166 -17.870  0.00  0.00    +0.253 C 
ATOM     16  O   UNL     1      15.999  -1.424 -18.286  0.00  0.00    -0.346 OA
BRANCH  15  23
ATOM     17  N   UNL     1      15.940  -5.182 -22.015  0.00  0.00    -0.219 NA
ATOM     18  C   UNL     1      15.335  -3.970 -22.001  0.00  0.00    +0.225 A 
ATOM     19  N   UNL     1      14.960  -3.199 -20.943  0.00  0.00    -0.216 NA
ATOM     20  C   UNL     1      15.191  -3.843 -19.786  0.00  0.00    +0.167 A 
ATOM     21  C   UNL     1      15.782  -5.097 -19.665  0.00  0.00    +0.147 A 
ATOM     22  C   UNL     1      16.248  -5.732 -20.826  0.00  0.00    +0.147 A 
ATOM     23  N   UNL     1      14.899  -3.487 -18.486  0.00  0.00    -0.286 N 
ATOM     24  C   UNL     1      15.023  -4.647 -17.752  0.00  0.00    +0.203 A 
ATOM     25  N   UNL     1      15.722  -5.564 -18.377  0.00  0.00    -0.231 NA
BRANCH  22  26
ATOM     26  N   UNL     1      16.936  -6.942 -20.765  0.00  0.00    -0.341 N 
ATOM     27  H   UNL     1      17.808  -6.899 -21.288  0.00  0.00    +0.144 HD
ATOM     28  H   UNL     1      17.009  -7.287 -19.817  0.00  0.00    +0.144 HD
ENDBRANCH  22  26
ENDBRANCH  15  23
BRANCH  14  29
ATOM     29  O   UNL     1      13.515  -1.978 -15.738  0.00  0.00    -0.385 OA
ATOM     30  H   UNL     1      12.865  -2.217 -16.438  0.00  0.00    +0.210 HD
ENDBRANCH  14  29
BRANCH  13  31
ATOM     31  O   UNL     1      14.718   0.312 -16.023  0.00  0.00    -0.386 OA
ATOM     32  H   UNL     1      14.838   0.805 -15.189  0.00  0.00    +0.210 HD
ENDBRANCH  13  31
ENDBRANCH  11  12
ENDBRANCH  10  11
ENDBRANCH   6  10
ENDBRANCH   5   6
ENDBRANCH   1   5
BRANCH   1  33
ATOM     33  O   UNL     1      19.615   1.774 -18.996  0.00  0.00    -0.284 OA
BRANCH  33  34
ATOM     34  C   UNL     1      18.955   3.015 -19.164  0.00  0.00    +0.206 C 
BRANCH  34  35
ATOM     35  C   UNL     1      17.447   2.838 -19.161  0.00  0.00    +0.172 C 
BRANCH  35  36
ATOM     36  O   UNL     1      16.895   4.121 -18.900  0.00  0.00    -0.387 OA
ATOM     37  H   UNL     1      16.653   4.543 -19.748  0.00  0.00    +0.210 HD
ENDBRANCH  35  36
BRANCH  35  38
ATOM     38  C   UNL     1      16.921   2.187 -20.460  0.00  0.00    +0.175 C 
BRANCH  38  39
ATOM     39  O   UNL     1      17.865   1.261 -21.010  0.00  0.00    -0.387 OA
ATOM     40  H   UNL     1      17.985   1.414 -21.967  0.00  0.00    +0.210 HD
ENDBRANCH  38  39
BRANCH  38  41
ATOM     41  C   UNL     1      15.578   1.426 -20.299  0.00  0.00    +0.165 C 
BRANCH  41  42
ATOM     42  O   UNL     1      15.131   1.450 -18.925  0.00  0.00    -0.387 OA
ATOM     43  H   UNL     1      14.172   1.317 -18.892  0.00  0.00    +0.210 HD
ENDBRANCH  41  42
BRANCH  41  44
ATOM     44  C   UNL     1      14.436   1.932 -21.209  0.00  0.00    +0.158 C 
BRANCH  44  51
ATOM     45  N   UNL     1       9.991   1.597 -18.750  0.00  0.00    -0.272 N 
ATOM     46  C   UNL     1      10.909   2.589 -18.934  0.00  0.00    +0.351 A 
ATOM     47  N   UNL     1      11.989   2.377 -19.746  0.00  0.00    -0.173 NA
ATOM     48  C   UNL     1      12.112   1.321 -20.489  0.00  0.00    +0.170 A 
ATOM     49  C   UNL     1      11.004   0.296 -20.479  0.00  0.00    +0.171 A 
ATOM     50  C   UNL     1       9.883   0.460 -19.490  0.00  0.00    +0.282 A 
ATOM     51  N   UNL     1      13.239   1.062 -21.262  0.00  0.00    -0.320 N 
ATOM     52  C   UNL     1      13.155   0.036 -22.231  0.00  0.00    +0.069 A 
ATOM     53  C   UNL     1      12.050  -0.846 -22.207  0.00  0.00    +0.089 A 
ATOM     54  N   UNL     1      11.003  -0.721 -21.283  0.00  0.00    -0.237 NA
ATOM     55  C   UNL     1      14.122  -0.183 -23.216  0.00  0.00    +0.031 A 
ATOM     56  C   UNL     1      14.046  -1.260 -24.111  0.00  0.00    -0.045 A 
ATOM     57  C   UNL     1      12.965  -2.149 -24.056  0.00  0.00    -0.045 A 
ATOM     58  C   UNL     1      11.970  -1.920 -23.102  0.00  0.00    +0.033 A 
ATOM     59  O   UNL     1       8.973  -0.343 -19.385  0.00  0.00    -0.265 OA
ATOM     60  O   UNL     1      10.759   3.645 -18.346  0.00  0.00    -0.245 OA
ATOM     61  C   UNL     1      12.830  -3.333 -24.973  0.00  0.00    +0.044 C 
ATOM     62  C   UNL     1      15.167  -1.454 -25.082  0.00  0.00    +0.044 C 
ATOM     63  H   UNL     1       9.235   1.826 -18.124  0.00  0.00    +0.174 HD
ENDBRANCH  44  51
ENDBRANCH  41  44
ENDBRANCH  38  41
ENDBRANCH  35  38
ENDBRANCH  34  35
ENDBRANCH  33  34
ENDBRANCH   1  33
TORSDOF 21
ENDMDL
MODEL 8
REMARK VINA RESULT:    -8.649     10.618     14.958
REMARK INTER + INTRA:         -19.735
REMARK INTER:                 -14.423
REMARK INTRA:                  -5.312
REMARK UNBOUND:                -2.491
REMARK  Name = 
REMARK  23 active torsions:
REMARK  status: ('A' for Active; 'I' for Inactive)
REMARK    1  A    between atoms: N_7  and  C_19
REMARK    2  A    between atoms: C_12  and  C_18
REMARK    3  A    between atoms: C_13  and  C_17
REMARK    4  A    between atoms: C_19  and  C_20
REMARK    5  A    between atoms: C_20  and  C_21
REMARK    6  A    between atoms: C_20  and  O_25
REMARK    7  A    between atoms: C_21  and  C_22
REMARK    8  A    between atoms: C_21  and  O_27
REMARK    9  A    between atoms: C_22  and  C_23
REMARK   10  A    between atoms: C_22  and  O_26
REMARK   11  A    between atoms: C_23  and  O_24
REMARK   12  A    between atoms: O_24  and  P_28
REMARK   13  A    between atoms: P_28  and  O_29
REMARK   14  A    between atoms: P_28  and  O_31
REMARK   15  A    between atoms: O_29  and  P_32
REMARK   16  A    between atoms: P_32  and  O_33
REMARK   17  A    between atoms: P_32  and  O_35
REMARK   18  A    between atoms: O_33  and  C_37
REMARK   19  A    between atoms: C_36  and  C_37
REMARK   20  A    between atoms: C_38  and  O_42
REMARK   21  A    between atoms: C_39  and  O_43
REMARK   22  A    between atoms: C_40  and  N_50
REMARK   23  A    between atoms: C_49  and  N_53
REMARK                            x       y       z     vdW  Elec       q    Type
REMARK                         _______ _______ _______ _____ _____    ______ ____
ROOT
ATOM      1  P   UNL     1      17.205  -5.649 -21.552  0.00  0.00    +0.483 P 
ATOM      2  O   UNL     1      16.832  -7.127 -21.615  0.00  0.00    -0.227 OA
ENDROOT
BRANCH   1   3
ATOM      3  O   UNL     1      18.763  -6.058 -20.923  0.00  0.00    -0.302 OA
ATOM      4  H   UNL     1      18.752  -6.467 -20.030  0.00  0.00    +0.222 HD
ENDBRANCH   1   3
BRANCH   1   5
ATOM      5  O   UNL     1      16.829  -5.106 -20.069  0.00  0.00    -0.186 OA
BRANCH   5   6
ATOM      6  P   UNL     1      15.657  -5.504 -19.053  0.00  0.00    +0.483 P 
ATOM      7  O   UNL     1      14.345  -4.814 -19.185  0.00  0.00    -0.227 OA
BRANCH   6   8
ATOM      8  O   UNL     1      15.531  -7.112 -19.042  0.00  0.00    -0.302 OA
ATOM      9  H   UNL     1      16.188  -7.482 -19.672  0.00  0.00    +0.222 HD
ENDBRANCH   6   8
BRANCH   6  10
ATOM     10  O   UNL     1      16.323  -5.351 -17.600  0.00  0.00    -0.284 OA
BRANCH  10  11
ATOM     11  C   UNL     1      16.683  -4.035 -17.284  0.00  0.00    +0.206 C 
BRANCH  11  12
ATOM     12  C   UNL     1      15.977  -3.527 -16.049  0.00  0.00    +0.178 C 
ATOM     13  C   UNL     1      15.020  -2.454 -16.515  0.00  0.00    +0.178 C 
ATOM     14  C   UNL     1      15.824  -1.161 -16.355  0.00  0.00    +0.195 C 
ATOM     15  C   UNL     1      16.735  -1.447 -15.156  0.00  0.00    +0.253 C 
ATOM     16  O   UNL     1      16.874  -2.903 -15.117  0.00  0.00    -0.346 OA
BRANCH  15  23
ATOM     17  N   UNL     1      20.807   0.495 -17.838  0.00  0.00    -0.219 NA
ATOM     18  C   UNL     1      19.988  -0.527 -18.182  0.00  0.00    +0.225 A 
ATOM     19  N   UNL     1      18.974  -1.103 -17.479  0.00  0.00    -0.216 NA
ATOM     20  C   UNL     1      18.895  -0.571 -16.247  0.00  0.00    +0.167 A 
ATOM     21  C   UNL     1      19.691   0.463 -15.762  0.00  0.00    +0.147 A 
ATOM     22  C   UNL     1      20.612   1.064 -16.634  0.00  0.00    +0.147 A 
ATOM     23  N   UNL     1      18.086  -0.895 -15.179  0.00  0.00    -0.286 N 
ATOM     24  C   UNL     1      18.665  -0.289 -14.084  0.00  0.00    +0.203 A 
ATOM     25  N   UNL     1      19.495   0.667 -14.421  0.00  0.00    -0.231 NA
BRANCH  22  26
ATOM     26  N   UNL     1      21.368   2.167 -16.243  0.00  0.00    -0.341 N 
ATOM     27  H   UNL     1      22.198   1.884 -15.727  0.00  0.00    +0.144 HD
ATOM     28  H   UNL     1      21.524   2.807 -17.010  0.00  0.00    +0.144 HD
ENDBRANCH  22  26
ENDBRANCH  15  23
BRANCH  14  29
ATOM     29  O   UNL     1      14.916  -0.078 -16.192  0.00  0.00    -0.385 OA
ATOM     30  H   UNL     1      14.769   0.010 -15.223  0.00  0.00    +0.210 HD
ENDBRANCH  14  29
BRANCH  13  31
ATOM     31  O   UNL     1      13.845  -2.400 -15.708  0.00  0.00    -0.386 OA
ATOM     32  H   UNL     1      13.258  -3.145 -15.940  0.00  0.00    +0.210 HD
ENDBRANCH  13  31
ENDBRANCH  11  12
ENDBRANCH  10  11
ENDBRANCH   6  10
ENDBRANCH   5   6
ENDBRANCH   1   5
BRANCH   1  33
ATOM     33  O   UNL     1      15.646  -5.240 -22.182  0.00  0.00    -0.284 OA
BRANCH  33  34
ATOM     34  C   UNL     1      15.724  -3.934 -22.723  0.00  0.00    +0.206 C 
BRANCH  34  35
ATOM     35  C   UNL     1      14.345  -3.317 -22.867  0.00  0.00    +0.172 C 
BRANCH  35  36
ATOM     36  O   UNL     1      13.673  -3.548 -21.636  0.00  0.00    -0.387 OA
ATOM     37  H   UNL     1      12.762  -3.200 -21.699  0.00  0.00    +0.210 HD
ENDBRANCH  35  36
BRANCH  35  38
ATOM     38  C   UNL     1      14.397  -1.827 -23.277  0.00  0.00    +0.175 C 
BRANCH  38  39
ATOM     39  O   UNL     1      15.352  -1.597 -24.319  0.00  0.00    -0.387 OA
ATOM     40  H   UNL     1      15.413  -0.646 -24.531  0.00  0.00    +0.210 HD
ENDBRANCH  38  39
BRANCH  38  41
ATOM     41  C   UNL     1      13.043  -1.247 -23.764  0.00  0.00    +0.165 C 
BRANCH  41  42
ATOM     42  O   UNL     1      11.981  -2.216 -23.616  0.00  0.00    -0.387 OA
ATOM     43  H   UNL     1      12.151  -2.975 -24.194  0.00  0.00    +0.210 HD
ENDBRANCH  41  42
BRANCH  41  44
ATOM     44  C   UNL     1      12.621   0.071 -23.077  0.00  0.00    +0.158 C 
BRANCH  44  51
ATOM     45  N   UNL     1      10.784  -1.715 -18.678  0.00  0.00    -0.272 N 
ATOM     46  C   UNL     1      10.672  -2.094 -19.984  0.00  0.00    +0.351 A 
ATOM     47  N   UNL     1      11.384  -1.433 -20.949  0.00  0.00    -0.173 NA
ATOM     48  C   UNL     1      12.295  -0.554 -20.670  0.00  0.00    +0.170 A 
ATOM     49  C   UNL     1      12.603  -0.265 -19.220  0.00  0.00    +0.171 A 
ATOM     50  C   UNL     1      11.733  -0.887 -18.164  0.00  0.00    +0.282 A 
ATOM     51  N   UNL     1      12.972   0.175 -21.642  0.00  0.00    -0.320 N 
ATOM     52  C   UNL     1      14.121   0.897 -21.247  0.00  0.00    +0.069 A 
ATOM     53  C   UNL     1      14.388   1.068 -19.869  0.00  0.00    +0.089 A 
ATOM     54  N   UNL     1      13.581   0.510 -18.868  0.00  0.00    -0.237 NA
ATOM     55  C   UNL     1      15.015   1.486 -22.146  0.00  0.00    +0.031 A 
ATOM     56  C   UNL     1      16.101   2.264 -21.718  0.00  0.00    -0.045 A 
ATOM     57  C   UNL     1      16.336   2.456 -20.350  0.00  0.00    -0.045 A 
ATOM     58  C   UNL     1      15.474   1.841 -19.439  0.00  0.00    +0.033 A 
ATOM     59  O   UNL     1      11.884  -0.674 -16.974  0.00  0.00    -0.265 OA
ATOM     60  O   UNL     1       9.916  -3.004 -20.270  0.00  0.00    -0.245 OA
ATOM     61  C   UNL     1      17.470   3.291 -19.823  0.00  0.00    +0.044 C 
ATOM     62  C   UNL     1      16.959   2.913 -22.757  0.00  0.00    +0.044 C 
ATOM     63  H   UNL     1      10.214  -2.239 -18.033  0.00  0.00    +0.174 HD
ENDBRANCH  44  51
ENDBRANCH  41  44
ENDBRANCH  38  41
ENDBRANCH  35  38
ENDBRANCH  34  35
ENDBRANCH  33  34
ENDBRANCH   1  33
TORSDOF 21
ENDMDL
MODEL 9
REMARK VINA RESULT:    -8.610     11.227     14.301
REMARK INTER + INTRA:         -19.659
REMARK INTER:                 -14.366
REMARK INTRA:                  -5.293
REMARK UNBOUND:                -2.491
REMARK  Name = 
REMARK  23 active torsions:
REMARK  status: ('A' for Active; 'I' for Inactive)
REMARK    1  A    between atoms: N_7  and  C_19
REMARK    2  A    between atoms: C_12  and  C_18
REMARK    3  A    between atoms: C_13  and  C_17
REMARK    4  A    between atoms: C_19  and  C_20
REMARK    5  A    between atoms: C_20  and  C_21
REMARK    6  A    between atoms: C_20  and  O_25
REMARK    7  A    between atoms: C_21  and  C_22
REMARK    8  A    between atoms: C_21  and  O_27
REMARK    9  A    between atoms: C_22  and  C_23
REMARK   10  A    between atoms: C_22  and  O_26
REMARK   11  A    between atoms: C_23  and  O_24
REMARK   12  A    between atoms: O_24  and  P_28
REMARK   13  A    between atoms: P_28  and  O_29
REMARK   14  A    between atoms: P_28  and  O_31
REMARK   15  A    between atoms: O_29  and  P_32
REMARK   16  A    between atoms: P_32  and  O_33
REMARK   17  A    between atoms: P_32  and  O_35
REMARK   18  A    between atoms: O_33  and  C_37
REMARK   19  A    between atoms: C_36  and  C_37
REMARK   20  A    between atoms: C_38  and  O_42
REMARK   21  A    between atoms: C_39  and  O_43
REMARK   22  A    between atoms: C_40  and  N_50
REMARK   23  A    between atoms: C_49  and  N_53
REMARK                            x       y       z     vdW  Elec       q    Type
REMARK                         _______ _______ _______ _____ _____    ______ ____
ROOT
ATOM      1  P   UNL     1      16.820  -1.742 -16.851  0.00  0.00    +0.483 P 
ATOM      2  O   UNL     1      16.482  -1.683 -15.365  0.00  0.00    -0.227 OA
ENDROOT
BRANCH   1   3
ATOM      3  O   UNL     1      17.081  -0.032 -16.870  0.00  0.00    -0.302 OA
ATOM      4  H   UNL     1      16.301   0.506 -16.614  0.00  0.00    +0.222 HD
ENDBRANCH   1   3
BRANCH   1   5
ATOM      5  O   UNL     1      15.452  -1.468 -17.682  0.00  0.00    -0.186 OA
BRANCH   5   6
ATOM      6  P   UNL     1      13.969  -2.048 -17.514  0.00  0.00    +0.483 P 
ATOM      7  O   UNL     1      13.459  -2.989 -18.548  0.00  0.00    -0.227 OA
BRANCH   6   8
ATOM      8  O   UNL     1      13.821  -2.615 -16.012  0.00  0.00    -0.302 OA
ATOM      9  H   UNL     1      13.379  -3.492 -16.049  0.00  0.00    +0.222 HD
ENDBRANCH   6   8
BRANCH   6  10
ATOM     10  O   UNL     1      13.053  -0.744 -17.321  0.00  0.00    -0.284 OA
BRANCH  10  11
ATOM     11  C   UNL     1      11.749  -0.898 -17.809  0.00  0.00    +0.206 C 
BRANCH  11  12
ATOM     12  C   UNL     1      11.226   0.362 -18.457  0.00  0.00    +0.178 C 
ATOM     13  C   UNL     1      10.017  -0.045 -19.267  0.00  0.00    +0.178 C 
ATOM     14  C   UNL     1      10.588  -0.298 -20.664  0.00  0.00    +0.195 C 
ATOM     15  C   UNL     1      11.757   0.689 -20.760  0.00  0.00    +0.253 C 
ATOM     16  O   UNL     1      12.163   0.941 -19.377  0.00  0.00    -0.346 OA
BRANCH  15  23
ATOM     17  N   UNL     1      16.480   1.774 -22.777  0.00  0.00    -0.219 NA
ATOM     18  C   UNL     1      15.373   2.554 -22.771  0.00  0.00    +0.225 A 
ATOM     19  N   UNL     1      14.116   2.275 -22.325  0.00  0.00    -0.216 NA
ATOM     20  C   UNL     1      14.034   0.995 -21.923  0.00  0.00    +0.167 A 
ATOM     21  C   UNL     1      15.088   0.086 -21.902  0.00  0.00    +0.147 A 
ATOM     22  C   UNL     1      16.367   0.537 -22.260  0.00  0.00    +0.147 A 
ATOM     23  N   UNL     1      12.954   0.261 -21.479  0.00  0.00    -0.286 N 
ATOM     24  C   UNL     1      13.354  -1.056 -21.548  0.00  0.00    +0.203 A 
ATOM     25  N   UNL     1      14.657  -1.182 -21.610  0.00  0.00    -0.231 NA
BRANCH  22  26
ATOM     26  N   UNL     1      17.482  -0.294 -22.167  0.00  0.00    -0.341 N 
ATOM     27  H   UNL     1      17.219  -1.239 -21.897  0.00  0.00    +0.144 HD
ATOM     28  H   UNL     1      18.077  -0.218 -22.981  0.00  0.00    +0.144 HD
ENDBRANCH  22  26
ENDBRANCH  15  23
BRANCH  14  29
ATOM     29  O   UNL     1       9.551  -0.116 -21.620  0.00  0.00    -0.385 OA
ATOM     30  H   UNL     1       8.775  -0.616 -21.278  0.00  0.00    +0.210 HD
ENDBRANCH  14  29
BRANCH  13  31
ATOM     31  O   UNL     1       9.037   0.990 -19.321  0.00  0.00    -0.386 OA
ATOM     32  H   UNL     1       8.214   0.681 -18.895  0.00  0.00    +0.210 HD
ENDBRANCH  13  31
ENDBRANCH  11  12
ENDBRANCH  10  11
ENDBRANCH   6  10
ENDBRANCH   5   6
ENDBRANCH   1   5
BRANCH   1  33
ATOM     33  O   UNL     1      16.559  -3.453 -16.832  0.00  0.00    -0.284 OA
BRANCH  33  34
ATOM     34  C   UNL     1      17.344  -4.024 -17.862  0.00  0.00    +0.206 C 
BRANCH  34  35
ATOM     35  C   UNL     1      16.751  -5.338 -18.339  0.00  0.00    +0.172 C 
BRANCH  35  36
ATOM     36  O   UNL     1      15.361  -5.276 -18.050  0.00  0.00    -0.387 OA
ATOM     37  H   UNL     1      15.180  -4.475 -17.520  0.00  0.00    +0.210 HD
ENDBRANCH  35  36
BRANCH  35  38
ATOM     38  C   UNL     1      17.065  -5.631 -19.823  0.00  0.00    +0.175 C 
BRANCH  38  39
ATOM     39  O   UNL     1      17.660  -6.923 -19.995  0.00  0.00    -0.387 OA
ATOM     40  H   UNL     1      17.432  -7.511 -19.251  0.00  0.00    +0.210 HD
ENDBRANCH  38  39
BRANCH  38  41
ATOM     41  C   UNL     1      15.834  -5.569 -20.765  0.00  0.00    +0.165 C 
BRANCH  41  42
ATOM     42  O   UNL     1      15.177  -4.285 -20.674  0.00  0.00    -0.387 OA
ATOM     43  H   UNL     1      14.447  -4.337 -20.038  0.00  0.00    +0.210 HD
ENDBRANCH  41  42
BRANCH  41  44
ATOM     44  C   UNL     1      16.141  -5.872 -22.249  0.00  0.00    +0.158 C 
BRANCH  44  51
ATOM     45  N   UNL     1      13.343  -2.682 -25.062  0.00  0.00    -0.272 N 
ATOM     46  C   UNL     1      13.074  -3.531 -24.029  0.00  0.00    +0.351 A 
ATOM     47  N   UNL     1      14.096  -4.204 -23.415  0.00  0.00    -0.173 NA
ATOM     48  C   UNL     1      15.346  -3.957 -23.661  0.00  0.00    +0.170 A 
ATOM     49  C   UNL     1      15.688  -2.864 -24.645  0.00  0.00    +0.171 A 
ATOM     50  C   UNL     1      14.572  -2.218 -25.417  0.00  0.00    +0.282 A 
ATOM     51  N   UNL     1      16.389  -4.684 -23.098  0.00  0.00    -0.320 N 
ATOM     52  C   UNL     1      17.698  -4.164 -23.217  0.00  0.00    +0.069 A 
ATOM     53  C   UNL     1      17.934  -3.089 -24.106  0.00  0.00    +0.089 A 
ATOM     54  N   UNL     1      16.911  -2.483 -24.848  0.00  0.00    -0.237 NA
ATOM     55  C   UNL     1      18.800  -4.666 -22.520  0.00  0.00    +0.031 A 
ATOM     56  C   UNL     1      20.099  -4.176 -22.723  0.00  0.00    -0.045 A 
ATOM     57  C   UNL     1      20.327  -3.135 -23.632  0.00  0.00    -0.045 A 
ATOM     58  C   UNL     1      19.229  -2.596 -24.308  0.00  0.00    +0.033 A 
ATOM     59  O   UNL     1      14.763  -1.360 -26.261  0.00  0.00    -0.265 OA
ATOM     60  O   UNL     1      11.917  -3.693 -23.686  0.00  0.00    -0.245 OA
ATOM     61  C   UNL     1      21.695  -2.576 -23.911  0.00  0.00    +0.044 C 
ATOM     62  C   UNL     1      21.224  -4.828 -21.983  0.00  0.00    +0.044 C 
ATOM     63  H   UNL     1      12.535  -2.239 -25.471  0.00  0.00    +0.174 HD
ENDBRANCH  44  51
ENDBRANCH  41  44
ENDBRANCH  38  41
ENDBRANCH  35  38
ENDBRANCH  34  35
ENDBRANCH  33  34
ENDBRANCH   1  33
TORSDOF 21
ENDMDL
