REMARK  Name = 
REMARK  23 active torsions:
REMARK  status: ('A' for Active; 'I' for Inactive)
REMARK    1  A    between atoms: N_7  and  C_19
REMARK    2  A    between atoms: C_12  and  C_18
REMARK    3  A    between atoms: C_13  and  C_17
REMARK    4  A    between atoms: C_19  and  C_20
REMARK    5  A    between atoms: C_20  and  C_21
REMARK    6  A    between atoms: C_20  and  O_25
REMARK    7  A    between atoms: C_21  and  C_22
REMARK    8  A    between atoms: C_21  and  O_27
REMARK    9  A    between atoms: C_22  and  C_23
REMARK   10  A    between atoms: C_22  and  O_26
REMARK   11  A    between atoms: C_23  and  O_24
REMARK   12  A    between atoms: O_24  and  P_28
REMARK   13  A    between atoms: P_28  and  O_29
REMARK   14  A    between atoms: P_28  and  O_31
REMARK   15  A    between atoms: O_29  and  P_32
REMARK   16  A    between atoms: P_32  and  O_33
REMARK   17  A    between atoms: P_32  and  O_35
REMARK   18  A    between atoms: O_33  and  C_37
REMARK   19  A    between atoms: C_36  and  C_37
REMARK   20  A    between atoms: C_38  and  O_42
REMARK   21  A    between atoms: C_39  and  O_43
REMARK   22  A    between atoms: C_40  and  N_50
REMARK   23  A    between atoms: C_49  and  N_53
REMARK                            x       y       z     vdW  Elec       q    Type
REMARK                         _______ _______ _______ _____ _____    ______ ____
ROOT
ATOM      1  P   UNL     1      -5.200   0.881   3.847  0.00  0.00    +0.483 P 
ATOM      2  O   UNL     1      -4.082  -0.112   4.148  0.00  0.00    -0.227 OA
ENDROOT
BRANCH   1   3
ATOM      3  O   UNL     1      -6.091   0.308   5.214  0.00  0.00    -0.302 OA
ATOM      4  H   UNL     1      -7.019   0.625   5.263  0.00  0.00    +0.222 HD
ENDBRANCH   1   3
BRANCH   1   5
ATOM      5  O   UNL     1      -6.293   0.128   2.911  0.00  0.00    -0.186 OA
BRANCH   5   6
ATOM      6  P   UNL     1      -7.875  -0.067   3.065  0.00  0.00    +0.483 P 
ATOM      7  O   UNL     1      -8.446  -1.418   2.816  0.00  0.00    -0.227 OA
BRANCH   6   8
ATOM      8  O   UNL     1      -8.319   0.558   4.484  0.00  0.00    -0.302 OA
ATOM      9  H   UNL     1      -9.282   0.402   4.608  0.00  0.00    +0.222 HD
ENDBRANCH   6   8
BRANCH   6  10
ATOM     10  O   UNL     1      -8.508   1.082   2.140  0.00  0.00    -0.284 OA
BRANCH  10  11
ATOM     11  C   UNL     1      -7.675   1.473   1.084  0.00  0.00    +0.206 C 
BRANCH  11  12
ATOM     12  C   UNL     1      -8.412   2.274   0.037  0.00  0.00    +0.178 C 
ATOM     13  C   UNL     1      -7.381   2.687  -0.988  0.00  0.00    +0.178 C 
ATOM     14  C   UNL     1      -6.938   4.073  -0.514  0.00  0.00    +0.195 C 
ATOM     15  C   UNL     1      -8.195   4.648   0.148  0.00  0.00    +0.253 C 
ATOM     16  O   UNL     1      -8.978   3.484   0.563  0.00  0.00    -0.346 OA
BRANCH  15  23
ATOM     17  N   UNL     1      -7.797   9.400   2.342  0.00  0.00    -0.219 NA
ATOM     18  C   UNL     1      -7.286   8.977   1.161  0.00  0.00    +0.225 A 
ATOM     19  N   UNL     1      -7.306   7.736   0.600  0.00  0.00    -0.216 NA
ATOM     20  C   UNL     1      -7.864   6.849   1.442  0.00  0.00    +0.167 A 
ATOM     21  C   UNL     1      -8.403   7.149   2.690  0.00  0.00    +0.147 A 
ATOM     22  C   UNL     1      -8.442   8.491   3.096  0.00  0.00    +0.147 A 
ATOM     23  N   UNL     1      -8.021   5.483   1.333  0.00  0.00    -0.286 N 
ATOM     24  C   UNL     1      -8.318   5.046   2.606  0.00  0.00    +0.203 A 
ATOM     25  N   UNL     1      -8.736   6.015   3.384  0.00  0.00    -0.231 NA
BRANCH  22  26
ATOM     26  N   UNL     1      -9.056   8.871   4.288  0.00  0.00    -0.341 N 
ATOM     27  H   UNL     1      -9.381   8.062   4.812  0.00  0.00    +0.144 HD
ATOM     28  H   UNL     1      -8.495   9.534   4.806  0.00  0.00    +0.144 HD
ENDBRANCH  22  26
ENDBRANCH  15  23
BRANCH  14  29
ATOM     29  O   UNL     1      -6.446   4.801  -1.633  0.00  0.00    -0.385 OA
ATOM     30  H   UNL     1      -6.698   4.280  -2.429  0.00  0.00    +0.210 HD
ENDBRANCH  14  29
BRANCH  13  31
ATOM     31  O   UNL     1      -7.937   2.775  -2.299  0.00  0.00    -0.386 OA
ATOM     32  H   UNL     1      -8.908   2.690  -2.246  0.00  0.00    +0.210 HD
ENDBRANCH  13  31
ENDBRANCH  11  12
ENDBRANCH  10  11
ENDBRANCH   6  10
ENDBRANCH   5   6
ENDBRANCH   1   5
BRANCH   1  33
ATOM     33  O   UNL     1      -4.308   1.454   2.479  0.00  0.00    -0.284 OA
BRANCH  33  34
ATOM     34  C   UNL     1      -4.245   2.866   2.562  0.00  0.00    +0.206 C 
BRANCH  34  35
ATOM     35  C   UNL     1      -3.538   3.455   1.354  0.00  0.00    +0.172 C 
BRANCH  35  36
ATOM     36  O   UNL     1      -3.739   4.860   1.420  0.00  0.00    -0.387 OA
ATOM     37  H   UNL     1      -3.244   5.218   2.183  0.00  0.00    +0.210 HD
ENDBRANCH  35  36
BRANCH  35  38
ATOM     38  C   UNL     1      -2.051   3.042   1.273  0.00  0.00    +0.175 C 
BRANCH  38  39
ATOM     39  O   UNL     1      -1.899   1.621   1.174  0.00  0.00    -0.387 OA
ATOM     40  H   UNL     1      -2.743   1.168   1.360  0.00  0.00    +0.210 HD
ENDBRANCH  38  39
BRANCH  38  41
ATOM     41  C   UNL     1      -1.275   3.666   0.083  0.00  0.00    +0.165 C 
BRANCH  41  42
ATOM     42  O   UNL     1      -1.860   3.274  -1.179  0.00  0.00    -0.387 OA
ATOM     43  H   UNL     1      -2.814   3.442  -1.162  0.00  0.00    +0.210 HD
ENDBRANCH  41  42
BRANCH  41  44
ATOM     44  C   UNL     1      -1.157   5.206   0.126  0.00  0.00    +0.158 C 
BRANCH  44  51
ATOM     45  N   UNL     1       2.236   4.062   3.745  0.00  0.00    -0.272 N 
ATOM     46  C   UNL     1       2.109   3.753   2.422  0.00  0.00    +0.351 A 
ATOM     47  N   UNL     1       1.098   4.309   1.686  0.00  0.00    -0.173 NA
ATOM     48  C   UNL     1       0.333   5.251   2.143  0.00  0.00    +0.170 A 
ATOM     49  C   UNL     1       0.585   5.776   3.536  0.00  0.00    +0.171 A 
ATOM     50  C   UNL     1       1.604   5.078   4.393  0.00  0.00    +0.282 A 
ATOM     51  N   UNL     1      -0.742   5.771   1.430  0.00  0.00    -0.320 N 
ATOM     52  C   UNL     1      -1.332   6.966   1.901  0.00  0.00    +0.069 A 
ATOM     53  C   UNL     1      -0.995   7.440   3.190  0.00  0.00    +0.089 A 
ATOM     54  N   UNL     1      -0.060   6.795   4.012  0.00  0.00    -0.237 NA
ATOM     55  C   UNL     1      -2.263   7.712   1.173  0.00  0.00    +0.031 A 
ATOM     56  C   UNL     1      -2.888   8.850   1.704  0.00  0.00    -0.045 A 
ATOM     57  C   UNL     1      -2.573   9.291   2.996  0.00  0.00    -0.045 A 
ATOM     58  C   UNL     1      -1.615   8.578   3.721  0.00  0.00    +0.033 A 
ATOM     59  O   UNL     1       1.838   5.408   5.542  0.00  0.00    -0.265 OA
ATOM     60  O   UNL     1       2.891   2.963   1.925  0.00  0.00    -0.245 OA
ATOM     61  C   UNL     1      -3.218  10.491   3.632  0.00  0.00    +0.044 C 
ATOM     62  C   UNL     1      -3.925   9.539   0.875  0.00  0.00    +0.044 C 
ATOM     63  H   UNL     1       2.994   3.598   4.220  0.00  0.00    +0.174 HD
ENDBRANCH  44  51
ENDBRANCH  41  44
ENDBRANCH  38  41
ENDBRANCH  35  38
ENDBRANCH  34  35
ENDBRANCH  33  34
ENDBRANCH   1  33
TORSDOF 21
