REMARK  Name = 
REMARK  4 active torsions:
REMARK  status: ('A' for Active; 'I' for Inactive)
REMARK    1  A    between atoms: C_1  and  C_2
REMARK    2  A    between atoms: C_1  and  C_3
REMARK    3  A    between atoms: C_2  and  C_5
REMARK    4  A    between atoms: C_5  and  O_7
REMARK                            x       y       z     vdW  Elec       q    Type
REMARK                         _______ _______ _______ _____ _____    ______ ____
ROOT
ATOM      1  C   UNL     1       0.482  -0.183  -1.238  0.00  0.00    +0.194 C 
ENDROOT
BRANCH   1   2
ATOM      2  C   UNL     1       1.201  -0.003   0.072  0.00  0.00    +0.141 C 
ATOM      3  C   UNL     1       2.091  -1.117   0.559  0.00  0.00    +0.086 C 
ATOM      4  O   UNL     1       0.995   0.991   0.772  0.00  0.00    -0.297 OA
ENDBRANCH   1   2
BRANCH   1   5
ATOM      5  C   UNL     1       1.391  -0.349  -2.418  0.00  0.00    +0.312 C 
ATOM      6  O   UNL     1       2.610  -0.369  -2.372  0.00  0.00    -0.251 OA
BRANCH   5   7
ATOM      7  O   UNL     1       0.709  -0.500  -3.579  0.00  0.00    -0.480 OA
ATOM      8  H   UNL     1      -0.263  -0.455  -3.494  0.00  0.00    +0.295 HD
ENDBRANCH   5   7
ENDBRANCH   1   5
TORSDOF 3
