REMARK  Name = 
REMARK  2 active torsions:
REMARK  status: ('A' for Active; 'I' for Inactive)
REMARK    1  A    between atoms: S_1  and  O_2
REMARK    2  A    between atoms: S_1  and  O_3
REMARK                            x       y       z     vdW  Elec       q    Type
REMARK                         _______ _______ _______ _____ _____    ______ ____
ROOT
ATOM      1  S   UNL     1       0.926   0.036   0.044  0.00  0.00    +0.137 S 
ATOM      2  O   UNL     1       2.412  -0.024   0.079  0.00  0.00    -0.137 OA
ENDROOT
BRANCH   1   3
ATOM      3  O   UNL     1       0.504   1.575   0.137  0.00  0.00    -0.246 OA
ATOM      4  H   UNL     1      -0.023   1.707   0.951  0.00  0.00    +0.245 HD
ENDBRANCH   1   3
BRANCH   1   5
ATOM      5  O   UNL     1       0.494  -0.160  -1.492  0.00  0.00    -0.246 OA
ATOM      6  H   UNL     1      -0.028  -0.988  -1.581  0.00  0.00    +0.245 HD
ENDBRANCH   1   5
TORSDOF 2
