REMARK  Name = 
REMARK  17 active torsions:
REMARK  status: ('A' for Active; 'I' for Inactive)
REMARK    1  A    between atoms: C_1  and  N_2
REMARK    2  A    between atoms: C_4  and  O_9
REMARK    3  A    between atoms: C_7  and  C_13
REMARK    4  A    between atoms: C_8  and  O_14
REMARK    5  A    between atoms: C_13  and  O_16
REMARK    6  A    between atoms: O_16  and  P_18
REMARK    7  A    between atoms: P_18  and  O_19
REMARK    8  A    between atoms: P_18  and  O_20
REMARK    9  A    between atoms: O_19  and  P_22
REMARK   10  A    between atoms: P_22  and  O_23
REMARK   11  A    between atoms: P_22  and  O_24
REMARK   12  A    between atoms: O_23  and  C_26
REMARK   13  A    between atoms: C_28  and  O_31
REMARK   14  A    between atoms: C_29  and  C_33
REMARK   15  A    between atoms: C_30  and  O_34
REMARK   16  A    between atoms: C_32  and  O_35
REMARK   17  A    between atoms: C_33  and  O_36
REMARK                            x       y       z     vdW  Elec       q    Type
REMARK                         _______ _______ _______ _____ _____    ______ ____
ROOT
ATOM      1  P   UNL     1       2.555  -2.232  -3.870  0.00  0.00    +0.483 P 
ATOM      2  O   UNL     1       3.245  -2.331  -5.252  0.00  0.00    -0.227 OA
ENDROOT
BRANCH   1   3
ATOM      3  O   UNL     1       2.344  -3.835  -3.684  0.00  0.00    -0.302 OA
ATOM      4  H   UNL     1       1.411  -4.103  -3.664  0.00  0.00    +0.222 HD
ENDBRANCH   1   3
BRANCH   1   5
ATOM      5  O   UNL     1       3.912  -2.003  -3.041  0.00  0.00    -0.186 OA
BRANCH   5   6
ATOM      6  P   UNL     1       5.014  -2.955  -2.448  0.00  0.00    +0.486 P 
ATOM      7  O   UNL     1       4.791  -4.427  -2.367  0.00  0.00    -0.227 OA
BRANCH   6   8
ATOM      8  O   UNL     1       5.192  -2.305  -0.984  0.00  0.00    -0.302 OA
ATOM      9  H   UNL     1       5.317  -1.334  -0.998  0.00  0.00    +0.222 HD
ENDBRANCH   6   8
BRANCH   6  10
ATOM     10  O   UNL     1       6.395  -2.529  -3.148  0.00  0.00    -0.254 OA
BRANCH  10  11
ATOM     11  C   UNL     1       6.455  -1.248  -3.744  0.00  0.00    +0.293 C 
ATOM     12  O   UNL     1       6.365  -0.213  -2.770  0.00  0.00    -0.340 OA
ATOM     13  C   UNL     1       7.742  -1.114  -4.569  0.00  0.00    +0.202 C 
ATOM     14  C   UNL     1       7.463  -0.190  -1.841  0.00  0.00    +0.178 C 
ATOM     15  C   UNL     1       8.955  -1.171  -3.630  0.00  0.00    +0.179 C 
ATOM     16  C   UNL     1       8.821  -0.090  -2.541  0.00  0.00    +0.177 C 
BRANCH  16  17
ATOM     17  O   UNL     1       9.866  -0.199  -1.571  0.00  0.00    -0.386 OA
ATOM     18  H   UNL     1       9.976  -1.141  -1.341  0.00  0.00    +0.210 HD
ENDBRANCH  16  17
BRANCH  15  19
ATOM     19  O   UNL     1      10.177  -0.997  -4.348  0.00  0.00    -0.386 OA
ATOM     20  H   UNL     1      10.123  -0.172  -4.860  0.00  0.00    +0.210 HD
ENDBRANCH  15  19
BRANCH  13  21
ATOM     21  O   UNL     1       7.813  -2.122  -5.579  0.00  0.00    -0.384 OA
ATOM     22  H   UNL     1       7.736  -2.990  -5.139  0.00  0.00    +0.210 HD
ENDBRANCH  13  21
BRANCH  14  23
ATOM     23  C   UNL     1       7.223   0.989  -0.891  0.00  0.00    +0.190 C 
BRANCH  23  24
ATOM     24  O   UNL     1       6.007   0.754  -0.166  0.00  0.00    -0.392 OA
ATOM     25  H   UNL     1       5.931   1.494   0.467  0.00  0.00    +0.210 HD
ENDBRANCH  23  24
ENDBRANCH  14  23
ENDBRANCH  10  11
ENDBRANCH   6  10
ENDBRANCH   5   6
ENDBRANCH   1   5
BRANCH   1  26
ATOM     26  O   UNL     1       1.784  -2.123  -2.325  0.00  0.00    -0.284 OA
BRANCH  26  27
ATOM     27  C   UNL     1       1.923  -0.880  -1.618  0.00  0.00    +0.206 C 
BRANCH  27  31
ATOM     28  C   UNL     1      -0.686   1.130  -1.941  0.00  0.00    +0.255 C 
ATOM     29  O   UNL     1       0.052   0.168  -2.738  0.00  0.00    -0.346 OA
ATOM     30  C   UNL     1       0.315   1.772  -0.962  0.00  0.00    +0.195 C 
ATOM     31  C   UNL     1       1.461   0.316  -2.454  0.00  0.00    +0.178 C 
ATOM     32  C   UNL     1       1.618   1.649  -1.731  0.00  0.00    +0.178 C 
BRANCH  28  33
ATOM     33  N   UNL     1      -1.827   0.491  -1.289  0.00  0.00    -0.271 N 
ATOM     34  C   UNL     1      -2.941   1.289  -1.043  0.00  0.00    +0.331 A 
ATOM     35  C   UNL     1      -1.787  -0.829  -0.879  0.00  0.00    +0.098 A 
ATOM     36  N   UNL     1      -3.982   0.679  -0.399  0.00  0.00    -0.275 N 
ATOM     37  O   UNL     1      -3.041   2.463  -1.397  0.00  0.00    -0.246 OA
ATOM     38  C   UNL     1      -2.816  -1.418  -0.267  0.00  0.00    +0.088 A 
ATOM     39  C   UNL     1      -4.035  -0.633  -0.016  0.00  0.00    +0.254 A 
ATOM     40  O   UNL     1      -5.024  -1.143   0.498  0.00  0.00    -0.268 OA
ATOM     41  H   UNL     1      -4.805   1.236  -0.235  0.00  0.00    +0.173 HD
ENDBRANCH  28  33
BRANCH  32  42
ATOM     42  O   UNL     1       1.711   2.735  -2.675  0.00  0.00    -0.386 OA
ATOM     43  H   UNL     1       1.206   2.515  -3.482  0.00  0.00    +0.210 HD
ENDBRANCH  32  42
BRANCH  30  44
ATOM     44  O   UNL     1       0.039   3.126  -0.632  0.00  0.00    -0.385 OA
ATOM     45  H   UNL     1       0.393   3.676  -1.361  0.00  0.00    +0.210 HD
ENDBRANCH  30  44
ENDBRANCH  27  31
ENDBRANCH  26  27
ENDBRANCH   1  26
TORSDOF 17
