REMARK  Name = 
REMARK  17 active torsions:
REMARK  status: ('A' for Active; 'I' for Inactive)
REMARK    1  A    between atoms: N_1  and  C_3
REMARK    2  A    between atoms: C_8  and  O_14
REMARK    3  A    between atoms: C_12  and  C_18
REMARK    4  A    between atoms: C_13  and  O_19
REMARK    5  A    between atoms: C_18  and  O_20
REMARK    6  A    between atoms: O_20  and  P_21
REMARK    7  A    between atoms: P_21  and  O_22
REMARK    8  A    between atoms: P_21  and  O_23
REMARK    9  A    between atoms: O_22  and  P_25
REMARK   10  A    between atoms: P_25  and  O_26
REMARK   11  A    between atoms: P_25  and  O_27
REMARK   12  A    between atoms: O_26  and  C_29
REMARK   13  A    between atoms: C_31  and  O_34
REMARK   14  A    between atoms: C_32  and  C_36
REMARK   15  A    between atoms: C_33  and  O_37
REMARK   16  A    between atoms: C_35  and  O_38
REMARK   17  A    between atoms: C_36  and  O_39
REMARK                            x       y       z     vdW  Elec       q    Type
REMARK                         _______ _______ _______ _____ _____    ______ ____
ROOT
ATOM      1  O   UNL     1       6.442  -3.327   0.838  0.00  0.00    -0.284 OA
ENDROOT
BRANCH   1   2
ATOM      2  P   UNL     1       7.863  -2.374   1.095  0.00  0.00    +0.483 P 
ATOM      3  O   UNL     1       9.135  -1.522   1.325  0.00  0.00    -0.227 OA
BRANCH   2   4
ATOM      4  O   UNL     1       8.679  -3.606   0.380  0.00  0.00    -0.302 OA
ATOM      5  H   UNL     1       9.077  -3.356  -0.472  0.00  0.00    +0.222 HD
ENDBRANCH   2   4
BRANCH   2   6
ATOM      6  O   UNL     1       7.992  -2.999   2.703  0.00  0.00    -0.186 OA
BRANCH   6   7
ATOM      7  P   UNL     1       8.734  -1.816   3.724  0.00  0.00    +0.486 P 
ATOM      8  O   UNL     1       9.398  -0.757   4.638  0.00  0.00    -0.227 OA
BRANCH   7   9
ATOM      9  O   UNL     1      10.203  -2.370   3.200  0.00  0.00    -0.302 OA
ATOM     10  H   UNL     1      10.350  -1.949   2.323  0.00  0.00    +0.222 HD
ENDBRANCH   7   9
BRANCH   7  11
ATOM     11  O   UNL     1       8.639  -2.863   5.029  0.00  0.00    -0.254 OA
BRANCH  11  12
ATOM     12  C   UNL     1       8.818  -4.234   4.915  0.00  0.00    +0.293 C 
ATOM     13  O   UNL     1       9.997  -4.738   4.280  0.00  0.00    -0.340 OA
ATOM     14  C   UNL     1       8.666  -5.033   6.212  0.00  0.00    +0.202 C 
ATOM     15  C   UNL     1      11.192  -4.541   5.068  0.00  0.00    +0.178 C 
ATOM     16  C   UNL     1       9.835  -4.831   7.162  0.00  0.00    +0.179 C 
ATOM     17  C   UNL     1      11.122  -5.253   6.439  0.00  0.00    +0.177 C 
BRANCH  17  18
ATOM     18  O   UNL     1      12.278  -4.943   7.215  0.00  0.00    -0.386 OA
ATOM     19  H   UNL     1      11.998  -4.360   7.941  0.00  0.00    +0.210 HD
ENDBRANCH  17  18
BRANCH  16  20
ATOM     20  O   UNL     1       9.576  -5.705   8.308  0.00  0.00    -0.386 OA
ATOM     21  H   UNL     1       8.909  -6.357   8.058  0.00  0.00    +0.210 HD
ENDBRANCH  16  20
BRANCH  14  22
ATOM     22  O   UNL     1       8.751  -6.463   5.921  0.00  0.00    -0.384 OA
ATOM     23  H   UNL     1       9.358  -6.563   5.154  0.00  0.00    +0.210 HD
ENDBRANCH  14  22
BRANCH  15  24
ATOM     24  C   UNL     1      12.367  -5.065   4.229  0.00  0.00    +0.190 C 
BRANCH  24  25
ATOM     25  O   UNL     1      12.119  -6.407   3.796  0.00  0.00    -0.392 OA
ATOM     26  H   UNL     1      11.433  -6.340   3.110  0.00  0.00    +0.210 HD
ENDBRANCH  24  25
ENDBRANCH  15  24
ENDBRANCH  11  12
ENDBRANCH   7  11
ENDBRANCH   6   7
ENDBRANCH   2   6
ENDBRANCH   1   2
BRANCH   1  27
ATOM     27  C   UNL     1       5.222  -2.686   1.235  0.00  0.00    +0.206 C 
BRANCH  27  31
ATOM     28  C   UNL     1       2.968  -4.755   2.653  0.00  0.00    +0.253 C 
ATOM     29  O   UNL     1       3.983  -4.788   1.621  0.00  0.00    -0.346 OA
ATOM     30  C   UNL     1       2.430  -3.339   2.697  0.00  0.00    +0.195 C 
ATOM     31  C   UNL     1       3.987  -3.546   0.895  0.00  0.00    +0.178 C 
ATOM     32  C   UNL     1       2.656  -2.892   1.266  0.00  0.00    +0.178 C 
BRANCH  28  33
ATOM     33  N   UNL     1       3.492  -5.174   3.944  0.00  0.00    -0.285 N 
ATOM     34  C   UNL     1       4.740  -5.596   4.227  0.00  0.00    +0.171 A 
ATOM     35  C   UNL     1       2.734  -5.337   5.080  0.00  0.00    +0.203 A 
ATOM     36  C   UNL     1       4.665  -6.064   5.515  0.00  0.00    +0.172 A 
ATOM     37  N   UNL     1       5.777  -5.652   3.368  0.00  0.00    -0.196 NA
ATOM     38  N   UNL     1       3.443  -5.828   6.077  0.00  0.00    -0.229 NA
ATOM     39  C   UNL     1       5.801  -6.781   6.019  0.00  0.00    +0.280 A 
ATOM     40  C   UNL     1       6.745  -6.418   3.772  0.00  0.00    +0.195 A 
ATOM     41  N   UNL     1       6.709  -7.075   4.999  0.00  0.00    -0.293 N 
ATOM     42  O   UNL     1       6.015  -7.041   7.198  0.00  0.00    -0.265 OA
ATOM     43  N   UNL     1       7.863  -6.479   2.975  0.00  0.00    -0.329 N 
ATOM     44  H   UNL     1       7.571  -7.436   5.375  0.00  0.00    +0.172 HD
ATOM     45  H   UNL     1       7.757  -5.789   2.222  0.00  0.00    +0.145 HD
ATOM     46  H   UNL     1       8.756  -6.274   3.393  0.00  0.00    +0.145 HD
ENDBRANCH  28  33
BRANCH  32  47
ATOM     47  O   UNL     1       1.582  -3.426   0.469  0.00  0.00    -0.386 OA
ATOM     48  H   UNL     1       1.828  -4.324   0.169  0.00  0.00    +0.210 HD
ENDBRANCH  32  47
BRANCH  30  49
ATOM     49  O   UNL     1       1.054  -3.300   3.067  0.00  0.00    -0.385 OA
ATOM     50  H   UNL     1       0.543  -3.476   2.251  0.00  0.00    +0.210 HD
ENDBRANCH  30  49
ENDBRANCH  27  31
ENDBRANCH   1  27
TORSDOF 17
