REMARK  Name = 
REMARK  6 active torsions:
REMARK  status: ('A' for Active; 'I' for Inactive)
REMARK    1  A    between atoms: O_1  and  C_2
REMARK    2  A    between atoms: C_2  and  CA_3
REMARK    3  A    between atoms: CA_3  and  C_4
REMARK    4  A    between atoms: CA_3  and  N_8
REMARK    5  A    between atoms: C_4  and  C_5
REMARK    6  A    between atoms: C_5  and  S_6
REMARK                            x       y       z     vdW  Elec       q    Type
REMARK                         _______ _______ _______ _____ _____    ______ ____
ROOT
ATOM      1  CA  UNL     1       3.254   1.318   0.265  0.00  0.00    +0.161 C 
ENDROOT
BRANCH   1   2
ATOM      2  N   UNL     1       2.527   2.557   0.593  0.00  0.00    -0.318 NA
ATOM      3  H1  UNL     1       1.924   2.792  -0.202  0.00  0.00    +0.119 HD
ATOM      4  H2  UNL     1       3.170   3.344   0.670  0.00  0.00    +0.119 HD
ENDBRANCH   1   2
BRANCH   1   5
ATOM      5  C   UNL     1       4.128   1.568  -0.973  0.00  0.00    +0.322 C 
ATOM      6  OXT UNL     1       3.744   1.423  -2.121  0.00  0.00    -0.249 OA
BRANCH   5   7
ATOM      7  O   UNL     1       5.354   2.046  -0.668  0.00  0.00    -0.480 OA
ATOM      8  H   UNL     1       5.520   2.158   0.286  0.00  0.00    +0.295 HD
ENDBRANCH   5   7
ENDBRANCH   1   5
BRANCH   1   9
ATOM      9  C   UNL     1       2.263   0.162   0.040  0.00  0.00    +0.040 C 
BRANCH   9  10
ATOM     10  C   UNL     1       2.972  -1.162  -0.259  0.00  0.00    +0.067 C 
BRANCH  10  11
ATOM     11  S   UNL     1       1.776  -2.508  -0.501  0.00  0.00    -0.178 S 
ATOM     12  H   UNL     1       1.437  -2.661   0.788  0.00  0.00    +0.102 HD
ENDBRANCH  10  11
ENDBRANCH   9  10
ENDBRANCH   1   9
TORSDOF 6
