REMARK  Name = 
REMARK  12 active torsions:
REMARK  status: ('A' for Active; 'I' for Inactive)
REMARK    1  A    between atoms: C_1  and  O_3
REMARK    2  A    between atoms: C_2  and  C_6
REMARK    3  A    between atoms: O_3  and  C_7
REMARK    4  A    between atoms: C_4  and  O_9
REMARK    5  A    between atoms: C_6  and  O_11
REMARK    6  A    between atoms: C_8  and  O_14
REMARK    7  A    between atoms: C_10  and  O_15
REMARK    8  A    between atoms: C_13  and  O_18
REMARK    9  A    between atoms: C_16  and  C_20
REMARK   10  A    between atoms: C_17  and  O_21
REMARK   11  A    between atoms: C_19  and  O_22
REMARK   12  A    between atoms: C_20  and  O_23
REMARK                            x       y       z     vdW  Elec       q    Type
REMARK                         _______ _______ _______ _____ _____    ______ ____
ROOT
ATOM      1  O   UNL     1       0.979   0.445  -1.790  0.00  0.00    -0.340 OA
ENDROOT
BRANCH   1   2
ATOM      2  C   UNL     1       0.523   0.266  -0.414  0.00  0.00    +0.183 C 
ATOM      3  C   UNL     1      -1.003  -0.038  -0.536  0.00  0.00    +0.178 C 
ATOM      4  C   UNL     1       0.842   1.406   0.603  0.00  0.00    +0.179 C 
ATOM      5  O   UNL     1      -1.917   1.016  -0.202  0.00  0.00    -0.341 OA
ATOM      6  C   UNL     1      -0.222   2.506   0.654  0.00  0.00    +0.201 C 
ATOM      7  C   UNL     1      -1.589   1.866   0.889  0.00  0.00    +0.279 C 
BRANCH   4   8
ATOM      8  O   UNL     1       0.951   0.887   1.946  0.00  0.00    -0.386 OA
ATOM      9  H   UNL     1       1.240  -0.044   1.915  0.00  0.00    +0.210 HD
ENDBRANCH   4   8
BRANCH   6  10
ATOM     10  O   UNL     1      -0.180   3.303  -0.537  0.00  0.00    -0.384 OA
ATOM     11  H   UNL     1      -0.425   2.726  -1.285  0.00  0.00    +0.210 HD
ENDBRANCH   6  10
BRANCH   7  12
ATOM     12  O   UNL     1      -1.719   1.198   2.129  0.00  0.00    -0.365 OA
ATOM     13  H   UNL     1      -0.818   0.960   2.432  0.00  0.00    +0.213 HD
ENDBRANCH   7  12
BRANCH   3  14
ATOM     14  C   UNL     1      -1.474  -1.392   0.039  0.00  0.00    +0.190 C 
BRANCH  14  15
ATOM     15  O   UNL     1      -0.933  -1.723   1.309  0.00  0.00    -0.392 OA
ATOM     16  H   UNL     1      -1.433  -2.493   1.638  0.00  0.00    +0.210 HD
ENDBRANCH  14  15
ENDBRANCH   3  14
ENDBRANCH   1   2
BRANCH   1  17
ATOM     17  C   UNL     1       2.218   1.111  -2.039  0.00  0.00    +0.282 C 
ATOM     18  O   UNL     1       2.326   1.376  -3.448  0.00  0.00    -0.341 OA
ATOM     19  C   UNL     1       3.474   0.515  -1.324  0.00  0.00    +0.201 C 
ATOM     20  C   UNL     1       3.181   0.582  -4.270  0.00  0.00    +0.178 C 
ATOM     21  C   UNL     1       4.417  -0.304  -2.216  0.00  0.00    +0.179 C 
ATOM     22  C   UNL     1       4.541   0.337  -3.598  0.00  0.00    +0.177 C 
BRANCH  19  23
ATOM     23  O   UNL     1       4.223   1.619  -0.767  0.00  0.00    -0.384 OA
ATOM     24  H   UNL     1       4.837   1.947  -1.455  0.00  0.00    +0.210 HD
ENDBRANCH  19  23
BRANCH  21  25
ATOM     25  O   UNL     1       4.093  -1.692  -2.227  0.00  0.00    -0.386 OA
ATOM     26  H   UNL     1       3.516  -1.899  -2.995  0.00  0.00    +0.210 HD
ENDBRANCH  21  25
BRANCH  22  27
ATOM     27  O   UNL     1       5.190   1.620  -3.407  0.00  0.00    -0.386 OA
ATOM     28  H   UNL     1       4.595   2.323  -3.737  0.00  0.00    +0.210 HD
ENDBRANCH  22  27
BRANCH  20  29
ATOM     29  C   UNL     1       2.496  -0.650  -4.866  0.00  0.00    +0.190 C 
BRANCH  29  30
ATOM     30  O   UNL     1       2.134  -1.602  -3.878  0.00  0.00    -0.392 OA
ATOM     31  H   UNL     1       1.322  -1.255  -3.450  0.00  0.00    +0.210 HD
ENDBRANCH  29  30
ENDBRANCH  20  29
ENDBRANCH   1  17
TORSDOF 12
