REMARK  Name = 
REMARK  5 active torsions:
REMARK  status: ('A' for Active; 'I' for Inactive)
REMARK    1  A    between atoms: O_1  and  C_2
REMARK    2  A    between atoms: C_2  and  C_3
REMARK    3  A    between atoms: C_3  and  C_4
REMARK    4  A    between atoms: C_4  and  C_5
REMARK    5  A    between atoms: C_5  and  O_6
REMARK                            x       y       z     vdW  Elec       q    Type
REMARK                         _______ _______ _______ _____ _____    ______ ____
ROOT
ATOM      1  C   UNL     1       1.928  -1.865  -1.761  0.00  0.00    +0.250 C 
ATOM      2  O   UNL     1       2.353  -2.704  -2.563  0.00  0.00    -0.285 OA
ENDROOT
BRANCH   1   3
ATOM      3  C   UNL     1       0.412  -1.785  -1.682  0.00  0.00    +0.373 C 
ATOM      4  O   UNL     1      -0.188  -1.025  -0.953  0.00  0.00    -0.242 OA
BRANCH   3   5
ATOM      5  O   UNL     1      -0.158  -2.665  -2.523  0.00  0.00    -0.475 OA
ATOM      6  H   UNL     1       0.543  -3.168  -3.005  0.00  0.00    +0.295 HD
ENDBRANCH   3   5
ENDBRANCH   1   3
BRANCH   1   7
ATOM      7  C   UNL     1       2.840  -1.011  -0.946  0.00  0.00    +0.206 C 
BRANCH   7   8
ATOM      8  C   UNL     1       2.506   0.043   0.057  0.00  0.00    +0.313 C 
ATOM      9  O   UNL     1       3.426   0.636   0.620  0.00  0.00    -0.251 OA
BRANCH   8  10
ATOM     10  O   UNL     1       1.252   0.367   0.368  0.00  0.00    -0.480 OA
ATOM     11  H   UNL     1       0.487  -0.082  -0.057  0.00  0.00    +0.295 HD
ENDBRANCH   8  10
ENDBRANCH   7   8
ENDBRANCH   1   7
TORSDOF 5
