REMARK  Name = 
REMARK  4 active torsions:
REMARK  status: ('A' for Active; 'I' for Inactive)
REMARK    1  A    between atoms: P_1  and  O_2
REMARK    2  A    between atoms: P_1  and  O_3
REMARK    3  A    between atoms: P_1  and  O_4
REMARK    4  A    between atoms: O_2  and  C_6
REMARK                            x       y       z     vdW  Elec       q    Type
REMARK                         _______ _______ _______ _____ _____    ______ ____
ROOT
ATOM      1  P   UNL     1       1.028   0.088  -0.038  0.00  0.00    +0.531 P 
ATOM      2  O   UNL     1       2.576   0.088  -0.038  0.00  0.00    -0.215 OA
ENDROOT
BRANCH   1   3
ATOM      3  O   UNL     1       0.845   1.509  -0.837  0.00  0.00    -0.293 OA
ATOM      4  H   UNL     1       0.910   1.372  -1.799  0.00  0.00    +0.223 HD
ENDBRANCH   1   3
BRANCH   1   5
ATOM      5  O   UNL     1      -0.702   0.088  -0.038  0.00  0.00    -0.293 OA
ATOM      6  H   UNL     1      -0.950   0.977   0.285  0.00  0.00    +0.223 HD
ENDBRANCH   1   5
BRANCH   1   7
ATOM      7  O   UNL     1       0.870   0.645   1.500  0.00  0.00    -0.357 OA
BRANCH   7   8
ATOM      8  C   UNL     1       0.930  -0.250   2.496  0.00  0.00    +0.405 C 
ATOM      9  N   UNL     1       0.762   0.359   3.693  0.00  0.00    -0.295 N 
ATOM     10  O   UNL     1       1.075  -1.451   2.363  0.00  0.00    -0.226 OA
ATOM     11  H   UNL     1       0.680   1.362   3.752  0.00  0.00    +0.148 HD
ATOM     12  H   UNL     1       0.822  -0.196   4.535  0.00  0.00    +0.148 HD
ENDBRANCH   7   8
ENDBRANCH   1   7
TORSDOF 4
