REMARK  Name = 
REMARK  6 active torsions:
REMARK  status: ('A' for Active; 'I' for Inactive)
REMARK    1  A    between atoms: C_1  and  C_4
REMARK    2  A    between atoms: C_2  and  O_6
REMARK    3  A    between atoms: C_4  and  O_8
REMARK    4  A    between atoms: C_5  and  O_11
REMARK    5  A    between atoms: C_7  and  O_12
REMARK    6  A    between atoms: C_10  and  O_13
REMARK                            x       y       z     vdW  Elec       q    Type
REMARK                         _______ _______ _______ _____ _____    ______ ____
ROOT
ATOM      1  C   UNL     1       0.551   1.188  -0.353  0.00  0.00    +0.260 C 
ATOM      2  C   UNL     1       1.329  -0.030   0.154  0.00  0.00    +0.185 C 
ATOM      3  O   UNL     1      -0.804   1.173   0.114  0.00  0.00    -0.332 OA
ATOM      4  C   UNL     1       0.607  -1.345  -0.200  0.00  0.00    +0.179 C 
ATOM      5  C   UNL     1      -1.520  -0.008  -0.275  0.00  0.00    +0.280 C 
ATOM      6  C   UNL     1      -0.859  -1.294   0.259  0.00  0.00    +0.201 C 
ENDROOT
BRANCH   1   7
ATOM      7  C   UNL     1       0.648   1.378  -1.865  0.00  0.00    +0.337 C 
ATOM      8  O   UNL     1       1.518   0.877  -2.570  0.00  0.00    -0.248 OA
BRANCH   7   9
ATOM      9  O   UNL     1      -0.343   2.163  -2.344  0.00  0.00    -0.479 OA
ATOM     10  H   UNL     1      -0.980   2.415  -1.641  0.00  0.00    +0.295 HD
ENDBRANCH   7   9
ENDBRANCH   1   7
BRANCH   2  11
ATOM     11  O   UNL     1       1.446   0.027   1.591  0.00  0.00    -0.386 OA
ATOM     12  H   UNL     1       1.283   0.938   1.897  0.00  0.00    +0.210 HD
ENDBRANCH   2  11
BRANCH   4  13
ATOM     13  O   UNL     1       0.616  -1.626  -1.601  0.00  0.00    -0.386 OA
ATOM     14  H   UNL     1       1.287  -1.089  -2.070  0.00  0.00    +0.210 HD
ENDBRANCH   4  13
BRANCH   5  15
ATOM     15  O   UNL     1      -2.834   0.115   0.247  0.00  0.00    -0.365 OA
ATOM     16  H   UNL     1      -2.806  -0.342   1.111  0.00  0.00    +0.213 HD
ENDBRANCH   5  15
BRANCH   6  17
ATOM     17  O   UNL     1      -0.998  -1.318   1.691  0.00  0.00    -0.384 OA
ATOM     18  H   UNL     1      -0.332  -0.701   2.057  0.00  0.00    +0.210 HD
ENDBRANCH   6  17
TORSDOF 6
