REMARK  Name = 
REMARK  7 active torsions:
REMARK  status: ('A' for Active; 'I' for Inactive)
REMARK    1  A    between atoms: CB_1  and  CG_2
REMARK    2  A    between atoms: CB_1  and  CA_3
REMARK    3  A    between atoms: CG_2  and  CD_4
REMARK    4  A    between atoms: CA_3  and  C_5
REMARK    5  A    between atoms: CA_3  and  N_6
REMARK    6  A    between atoms: CD_4  and  NE_7
REMARK    7  A    between atoms: C_5  and  O_8
REMARK                            x       y       z     vdW  Elec       q    Type
REMARK                         _______ _______ _______ _____ _____    ______ ____
ROOT
ATOM      1  CG  ARG A   1       0.475  -0.237   1.469  0.00  0.00    +0.023 C 
ENDROOT
BRANCH   1   2
ATOM      2  CB  ARG A   1       1.008   0.063   0.061  0.00  0.00    +0.031 C 
BRANCH   2   3
ATOM      3  CA  ARG A   1       0.661   1.452  -0.502  0.00  0.00    +0.161 C 
BRANCH   3   4
ATOM      4  N   ARG A   1      -0.792   1.632  -0.642  0.00  0.00    -0.318 NA
ATOM      5  H1  ARG A   1      -1.280   0.904  -1.155  0.00  0.00    +0.119 HD
ATOM      6  H2  ARG A   1      -1.091   2.585  -0.831  0.00  0.00    +0.119 HD
ENDBRANCH   3   4
BRANCH   3   7
ATOM      7  C   ARG A   1       1.385   1.649  -1.850  0.00  0.00    +0.322 C 
ATOM      8  OXT ARG A   1       2.593   1.581  -2.002  0.00  0.00    -0.249 OA
BRANCH   7   9
ATOM      9  O   ARG A   1       0.539   1.893  -2.882  0.00  0.00    -0.480 OA
ATOM     10  H   ARG A   1      -0.380   1.912  -2.552  0.00  0.00    +0.295 HD
ENDBRANCH   7   9
ENDBRANCH   3   7
ENDBRANCH   2   3
ENDBRANCH   1   2
BRANCH   1  11
ATOM     11  CD  ARG A   1      -1.042  -0.401   1.558  0.00  0.00    +0.115 C 
BRANCH  11  12
ATOM     12  NE  ARG A   1      -1.427  -0.693   2.925  0.00  0.00    -0.356 N 
ATOM     13  CZ  ARG A   1      -1.838   0.256   3.800  0.00  0.00    +0.188 C 
ATOM     14  NH1 ARG A   1      -2.423  -0.292   4.879  0.00  0.00    -0.370 N 
ATOM     15  NH2 ARG A   1      -1.730   1.530   3.720  0.00  0.00    -0.269 NA
ATOM     16  HE  ARG A   1      -1.953  -1.554   3.016  0.00  0.00    +0.162 HD
ATOM     17 HH11 ARG A   1      -1.887  -1.054   5.269  0.00  0.00    +0.159 HD
ATOM     18 HH12 ARG A   1      -2.568   0.434   5.577  0.00  0.00    +0.159 HD
ATOM     19  HH2 ARG A   1      -1.264   1.781   2.849  0.00  0.00    +0.190 HD
ENDBRANCH  11  12
ENDBRANCH   1  11
TORSDOF 7
