REMARK  Name = 
REMARK  11 active torsions:
REMARK  status: ('A' for Active; 'I' for Inactive)
REMARK    1  A    between atoms: C_1  and  N_9
REMARK    2  A    between atoms: C_3  and  O_6
REMARK    3  A    between atoms: C_4  and  C_7
REMARK    4  A    between atoms: C_5  and  O_8
REMARK    5  A    between atoms: C_7  and  S_19
REMARK    6  A    between atoms: S_19  and  C_20
REMARK    7  A    between atoms: C_20  and  C_21
REMARK    8  A    between atoms: C_21  and  C_22
REMARK    9  A    between atoms: C_22  and  C_23
REMARK   10  A    between atoms: C_22  and  N_25
REMARK   11  A    between atoms: C_23  and  O_24
REMARK                            x       y       z     vdW  Elec       q    Type
REMARK                         _______ _______ _______ _____ _____    ______ ____
ROOT
ATOM      1  C   UNK     1       0.492   1.306   0.315  0.00  0.00    +0.253 C 
ATOM      2  O   UNK     1       1.675   0.503   0.136  0.00  0.00    -0.347 OA
ATOM      3  C   UNK     1      -0.608   0.672  -0.519  0.00  0.00    +0.195 C 
ATOM      4  C   UNK     1       1.307  -0.782  -0.419  0.00  0.00    +0.162 C 
ATOM      5  C   UNK     1      -0.227  -0.800  -0.457  0.00  0.00    +0.177 C 
ENDROOT
BRANCH   1   6
ATOM      6  N   UNK     1       0.784   2.679  -0.025  0.00  0.00    -0.286 N 
ATOM      7  C   UNK     1       0.179   3.790   0.502  0.00  0.00    +0.167 A 
ATOM      8  C   UNK     1       0.896   4.857  -0.019  0.00  0.00    +0.147 A 
ATOM      9  N   UNK     1       1.885   4.418  -0.876  0.00  0.00    -0.231 NA
ATOM     10  C   UNK     1       1.790   3.107  -0.849  0.00  0.00    +0.203 A 
ATOM     11  N   UNK     1      -0.846   3.850   1.368  0.00  0.00    -0.216 NA
ATOM     12  C   UNK     1      -1.133   5.133   1.683  0.00  0.00    +0.225 A 
ATOM     13  N   UNK     1      -0.517   6.262   1.264  0.00  0.00    -0.219 NA
ATOM     14  C   UNK     1       0.528   6.142   0.415  0.00  0.00    +0.147 A 
ATOM     15  N   UNK     1       1.208   7.284   0.039  0.00  0.00    -0.341 N 
ATOM     16  H   UNK     1       0.768   8.165   0.252  0.00  0.00    +0.144 HD
ATOM     17  H   UNK     1       1.876   7.198  -0.715  0.00  0.00    +0.144 HD
ENDBRANCH   1   6
BRANCH   3  18
ATOM     18  O   UNK     1      -1.906   0.894   0.028  0.00  0.00    -0.385 OA
ATOM     19  H   UNK     1      -2.101   0.119   0.597  0.00  0.00    +0.210 HD
ENDBRANCH   3  18
BRANCH   5  20
ATOM     20  O   UNK     1      -0.785  -1.337   0.761  0.00  0.00    -0.386 OA
ATOM     21  H   UNK     1      -0.136  -1.245   1.482  0.00  0.00    +0.210 HD
ENDBRANCH   5  20
BRANCH   4  22
ATOM     22  C   UNK     1       1.972  -0.961  -1.794  0.00  0.00    +0.103 C 
BRANCH  22  23
ATOM     23  S   UNK     1       3.794  -0.921  -1.593  0.00  0.00    -0.158 S 
BRANCH  23  24
ATOM     24  C   UNK     1       4.320  -1.151  -3.321  0.00  0.00    +0.071 C 
BRANCH  24  25
ATOM     25  C   UNK     1       5.855  -1.143  -3.358  0.00  0.00    +0.040 C 
BRANCH  25  26
ATOM     26  C   UNK     1       6.437  -1.343  -4.763  0.00  0.00    +0.161 C 
BRANCH  26  27
ATOM     27  N   UNK     1       5.922  -2.607  -5.318  0.00  0.00    -0.318 NA
ATOM     28  H   UNK     1       6.014  -3.404  -4.694  0.00  0.00    +0.119 HD
ATOM     29  H   UNK     1       6.190  -2.779  -6.282  0.00  0.00    +0.119 HD
ENDBRANCH  26  27
BRANCH  26  30
ATOM     30  C   UNK     1       7.991  -1.309  -4.730  0.00  0.00    +0.322 C 
ATOM     31  O   UNK     1       8.657  -0.367  -4.354  0.00  0.00    -0.249 OA
BRANCH  30  32
ATOM     32  O   UNK     1       8.562  -2.455  -5.192  0.00  0.00    -0.480 OA
ATOM     33  H   UNK     1       7.875  -3.091  -5.458  0.00  0.00    +0.295 HD
ENDBRANCH  30  32
ENDBRANCH  26  30
ENDBRANCH  25  26
ENDBRANCH  24  25
ENDBRANCH  23  24
ENDBRANCH  22  23
ENDBRANCH   4  22
TORSDOF 11
