REMARK  Name = 
REMARK  3 active torsions:
REMARK  status: ('A' for Active; 'I' for Inactive)
REMARK    1  A    between atoms: C_1  and  C_2
REMARK    2  A    between atoms: C_2  and  C_3
REMARK    3  A    between atoms: C_3  and  O_4
REMARK                            x       y       z     vdW  Elec       q    Type
REMARK                         _______ _______ _______ _____ _____    ______ ____
ROOT
ATOM      1  C   UNL     1       3.195   0.085  -1.385  0.00  0.00    +0.372 C 
ATOM      2  O   UNL     1       2.596   0.201  -2.434  0.00  0.00    -0.242 OA
ENDROOT
BRANCH   1   4
ATOM      3  C   UNL     1       1.012  -0.069   0.009  0.00  0.00    +0.099 C 
ATOM      4  C   UNL     1       2.511  -0.065  -0.026  0.00  0.00    +0.236 C 
ATOM      5  O   UNL     1       3.235  -0.174   0.961  0.00  0.00    -0.285 OA
ENDBRANCH   1   4
BRANCH   1   6
ATOM      6  O   UNL     1       4.534   0.067  -1.240  0.00  0.00    -0.475 OA
ATOM      7  H   UNL     1       4.756  -0.039  -0.284  0.00  0.00    +0.295 HD
ENDBRANCH   1   6
TORSDOF 2
