REMARK  Name = 
REMARK  14 active torsions:
REMARK  status: ('A' for Active; 'I' for Inactive)
REMARK    1  A    between atoms: N_1  and  C_3
REMARK    2  A    between atoms: C_2  and  C_6
REMARK    3  A    between atoms: C_3  and  C_7
REMARK    4  A    between atoms: C_5  and  C_9
REMARK    5  A    between atoms: C_9  and  C_12
REMARK    6  A    between atoms: C_10  and  N_14
REMARK    7  A    between atoms: C_12  and  O_16
REMARK    8  A    between atoms: O_16  and  P_19
REMARK    9  A    between atoms: C_17  and  C_18
REMARK   10  A    between atoms: P_19  and  O_20
REMARK   11  A    between atoms: P_19  and  O_22
REMARK   12  A    between atoms: O_20  and  P_23
REMARK   13  A    between atoms: P_23  and  O_24
REMARK   14  A    between atoms: P_23  and  O_26
REMARK                            x       y       z     vdW  Elec       q    Type
REMARK                         _______ _______ _______ _____ _____    ______ ____
ROOT
ATOM      1  N   UNL     1       1.098  -0.482   0.017  0.00  0.00    -0.340 N 
ATOM      2  C   UNL     1       0.824   0.874  -0.184  0.00  0.00    +0.026 A 
ATOM      3  C   UNL     1       0.019  -1.237   0.158  0.00  0.00    +0.132 A 
ATOM      4  C   UNL     1      -0.530   1.149  -0.055  0.00  0.00    +0.012 A 
ATOM      5  C   UNL     1       1.892   1.857  -0.499  0.00  0.00    +0.064 C 
ATOM      6  S   UNL     1      -1.414  -0.314   0.109  0.00  0.00    -0.082 S 
ENDROOT
BRANCH   1   7
ATOM      7  C   UNL     1       2.423  -1.118  -0.020  0.00  0.00    +0.162 C 
BRANCH   7   8
ATOM      8  C   UNL     1       3.032  -1.296   1.333  0.00  0.00    +0.030 A 
ATOM      9  C   UNL     1       3.870  -0.372   1.925  0.00  0.00    +0.125 A 
ATOM     10  C   UNL     1       2.845  -2.450   2.070  0.00  0.00    +0.121 A 
ATOM     11  N   UNL     1       4.514  -0.594   3.075  0.00  0.00    -0.218 NA
ATOM     12  N   UNL     1       3.479  -2.717   3.223  0.00  0.00    -0.240 NA
ATOM     13  C   UNL     1       4.330  -1.782   3.674  0.00  0.00    +0.128 A 
ATOM     14  C   UNL     1       5.190  -2.123   4.853  0.00  0.00    +0.088 C 
BRANCH   9  15
ATOM     15  N   UNL     1       4.164   0.852   1.331  0.00  0.00    -0.343 N 
ATOM     16  H   UNL     1       4.746   0.737   0.505  0.00  0.00    +0.144 HD
ATOM     17  H   UNL     1       4.736   1.349   2.024  0.00  0.00    +0.144 HD
ENDBRANCH   9  15
ENDBRANCH   7   8
ENDBRANCH   1   7
BRANCH   4  18
ATOM     18  C   UNL     1      -1.246   2.471  -0.090  0.00  0.00    +0.073 C 
BRANCH  18  19
ATOM     19  C   UNL     1      -1.986   2.780   1.218  0.00  0.00    +0.177 C 
BRANCH  19  20
ATOM     20  O   UNL     1      -2.667   4.020   1.166  0.00  0.00    -0.286 OA
BRANCH  20  21
ATOM     21  P   UNL     1      -1.793   5.366   1.140  0.00  0.00    +0.483 P 
ATOM     22  O   UNL     1      -0.517   5.336   1.911  0.00  0.00    -0.227 OA
BRANCH  21  23
ATOM     23  O   UNL     1      -1.515   5.524  -0.437  0.00  0.00    -0.302 OA
ATOM     24  H   UNL     1      -0.959   6.309  -0.603  0.00  0.00    +0.222 HD
ENDBRANCH  21  23
BRANCH  21  25
ATOM     25  O   UNL     1      -2.821   6.539   1.390  0.00  0.00    -0.186 OA
BRANCH  25  26
ATOM     26  P   UNL     1      -3.159   7.122   2.823  0.00  0.00    +0.481 P 
ATOM     27  O   UNL     1      -3.553   6.167   3.893  0.00  0.00    -0.227 OA
BRANCH  26  28
ATOM     28  O   UNL     1      -4.287   8.202   2.488  0.00  0.00    -0.302 OA
ATOM     29  H   UNL     1      -5.168   7.798   2.387  0.00  0.00    +0.222 HD
ENDBRANCH  26  28
BRANCH  26  30
ATOM     30  O   UNL     1      -1.938   8.085   3.162  0.00  0.00    -0.302 OA
ATOM     31  H   UNL     1      -2.107   8.612   3.964  0.00  0.00    +0.222 HD
ENDBRANCH  26  30
ENDBRANCH  25  26
ENDBRANCH  21  25
ENDBRANCH  20  21
ENDBRANCH  19  20
ENDBRANCH  18  19
ENDBRANCH   4  18
TORSDOF 12
