REMARK  Name = 
REMARK  1 active torsions:
REMARK  status: ('A' for Active; 'I' for Inactive)
REMARK    1  A    between atoms: C_1  and  O_2
REMARK                            x       y       z     vdW  Elec       q    Type
REMARK                         _______ _______ _______ _____ _____    ______ ____
ROOT
ATOM      1  C   UNL     1       0.853   0.023   0.062  0.00  0.00    +0.443 C 
ATOM      2  O   UNL     1       0.309   0.832  -0.667  0.00  0.00    -0.255 OA
ENDROOT
BRANCH   1   3
ATOM      3  O   UNL     1       0.197  -0.850   0.850  0.00  0.00    -0.483 OA
ATOM      4  H   UNL     1       0.809  -1.414   1.359  0.00  0.00    +0.295 HD
ENDBRANCH   1   3
TORSDOF 1
