REMARK  Name = 
REMARK  2 active torsions:
REMARK  status: ('A' for Active; 'I' for Inactive)
REMARK    1  A    between atoms: C_1  and  C_4
REMARK    2  A    between atoms: C_4  and  O_7
REMARK                            x       y       z     vdW  Elec       q    Type
REMARK                         _______ _______ _______ _____ _____    ______ ____
ROOT
ATOM      1  C   UNL     1       0.674   1.274   0.027  0.00  0.00    +0.077 A 
ATOM      2  C   UNL     1       1.425   0.094   0.015  0.00  0.00    +0.018 A 
ATOM      3  C   UNL     1      -0.706   1.159   0.010  0.00  0.00    +0.125 A 
ATOM      4  C   UNL     1       0.775  -1.137   0.013  0.00  0.00    +0.020 A 
ATOM      5  N   UNL     1      -1.368  -0.026   0.024  0.00  0.00    -0.262 NA
ATOM      6  C   UNL     1      -0.610  -1.146   0.021  0.00  0.00    +0.111 A 
ENDROOT
BRANCH   1   7
ATOM      7  C   UNL     1       1.377   2.572  -0.007  0.00  0.00    +0.338 C 
ATOM      8  O   UNL     1       2.488   2.692  -0.498  0.00  0.00    -0.245 OA
BRANCH   7   9
ATOM      9  O   UNL     1       0.723   3.599   0.571  0.00  0.00    -0.477 OA
ATOM     10  H   UNL     1      -0.074   3.386   1.088  0.00  0.00    +0.295 HD
ENDBRANCH   7   9
ENDBRANCH   1   7
TORSDOF 2
