REMARK  Name = 
REMARK  5 active torsions:
REMARK  status: ('A' for Active; 'I' for Inactive)
REMARK    1  A    between atoms: C_1  and  C_2
REMARK    2  A    between atoms: C_1  and  C_3
REMARK    3  A    between atoms: C_2  and  C_5
REMARK    4  A    between atoms: C_2  and  C_6
REMARK    5  A    between atoms: C_3  and  O_7
REMARK                            x       y       z     vdW  Elec       q    Type
REMARK                         _______ _______ _______ _____ _____    ______ ____
ROOT
ATOM      1  C   UNL     1       1.035   0.108  -0.061  0.00  0.00    +0.242 C 
ATOM      2  O   UNL     1       2.147   0.565  -0.317  0.00  0.00    -0.285 OA
ENDROOT
BRANCH   1   3
ATOM      3  C   UNL     1       0.287  -0.919  -0.885  0.00  0.00    +0.061 C 
ATOM      4  C   UNL     1      -0.597  -0.217  -1.909  0.00  0.00    +0.016 C 
ATOM      5  C   UNL     1       1.273  -1.860  -1.570  0.00  0.00    +0.016 C 
ENDBRANCH   1   3
BRANCH   1   6
ATOM      6  C   UNL     1       0.343   0.644   1.192  0.00  0.00    +0.373 C 
ATOM      7  O   UNL     1      -0.770   0.310   1.544  0.00  0.00    -0.242 OA
BRANCH   6   8
ATOM      8  O   UNL     1       1.147   1.514   1.832  0.00  0.00    -0.475 OA
ATOM      9  H   UNL     1       1.990   1.606   1.326  0.00  0.00    +0.295 HD
ENDBRANCH   6   8
ENDBRANCH   1   6
TORSDOF 3
