REMARK  Name = 
REMARK  7 active torsions:
REMARK  status: ('A' for Active; 'I' for Inactive)
REMARK    1  A    between atoms: O_1  and  C_2
REMARK    2  A    between atoms: C_2  and  C_3
REMARK    3  A    between atoms: C_3  and  C_4
REMARK    4  A    between atoms: C_4  and  O_5
REMARK    5  A    between atoms: O_5  and  P_6
REMARK    6  A    between atoms: P_6  and  O_7
REMARK    7  A    between atoms: P_6  and  O_8
REMARK                            x       y       z     vdW  Elec       q    Type
REMARK                         _______ _______ _______ _____ _____    ______ ____
ROOT
ATOM      1  O   UNL     1       0.872   1.902  -1.451  0.00  0.00    -0.279 OA
ENDROOT
BRANCH   1   2
ATOM      2  P   UNL     1       0.069   0.529  -1.565  0.00  0.00    +0.473 P 
ATOM      3  O   UNL     1      -1.265   0.603  -2.226  0.00  0.00    -0.228 OA
BRANCH   2   4
ATOM      4  O   UNL     1       1.049  -0.599  -2.117  0.00  0.00    -0.303 OA
ATOM      5  H   UNL     1       1.674  -0.852  -1.398  0.00  0.00    +0.222 HD
ENDBRANCH   2   4
BRANCH   2   6
ATOM      6  O   UNL     1      -0.102   0.083  -0.039  0.00  0.00    -0.303 OA
ATOM      7  H   UNL     1      -0.961   0.396   0.295  0.00  0.00    +0.222 HD
ENDBRANCH   2   6
ENDBRANCH   1   2
BRANCH   1   8
ATOM      8  C   UNL     1       2.270   1.982  -1.579  0.00  0.00    +0.249 C 
BRANCH   8   9
ATOM      9  C   UNL     1       3.140   1.065  -0.716  0.00  0.00    +0.184 C 
ATOM     10  O   UNL     1       2.770  -0.060  -0.368  0.00  0.00    -0.292 OA
BRANCH   9  11
ATOM     11  C   UNL     1       4.494   1.605  -0.286  0.00  0.00    +0.232 C 
BRANCH  11  12
ATOM     12  O   UNL     1       5.112   2.386  -1.292  0.00  0.00    -0.387 OA
ATOM     13  H   UNL     1       6.063   2.422  -1.084  0.00  0.00    +0.210 HD
ENDBRANCH  11  12
ENDBRANCH   9  11
ENDBRANCH   8   9
ENDBRANCH   1   8
TORSDOF 7
