REMARK  Name = 
REMARK  2 active torsions:
REMARK  status: ('A' for Active; 'I' for Inactive)
REMARK    1  A    between atoms: C_1  and  C_2
REMARK    2  A    between atoms: C_1  and  O_3
REMARK                            x       y       z     vdW  Elec       q    Type
REMARK                         _______ _______ _______ _____ _____    ______ ____
ROOT
ATOM      1  C   UNL     1       0.959   0.042   0.005  0.00  0.00    +0.302 C 
ATOM      2  C   UNL     1       0.155  -0.164   1.254  0.00  0.00    +0.136 C 
ATOM      3  O   UNL     1       2.181   0.046  -0.016  0.00  0.00    -0.251 OA
ENDROOT
BRANCH   1   4
ATOM      4  O   UNL     1       0.216   0.227  -1.106  0.00  0.00    -0.481 OA
ATOM      5  H   UNL     1      -0.747   0.202  -0.960  0.00  0.00    +0.295 HD
ENDBRANCH   1   4
TORSDOF 1
