REMARK  Name = 
REMARK  18 active torsions:
REMARK  status: ('A' for Active; 'I' for Inactive)
REMARK    1  A    between atoms: C_1  and  N_2
REMARK    2  A    between atoms: C_4  and  O_9
REMARK    3  A    between atoms: C_7  and  C_13
REMARK    4  A    between atoms: C_8  and  O_14
REMARK    5  A    between atoms: C_13  and  O_16
REMARK    6  A    between atoms: O_16  and  P_18
REMARK    7  A    between atoms: P_18  and  O_19
REMARK    8  A    between atoms: P_18  and  O_20
REMARK    9  A    between atoms: O_19  and  P_22
REMARK   10  A    between atoms: P_22  and  O_23
REMARK   11  A    between atoms: P_22  and  O_24
REMARK   12  A    between atoms: O_23  and  C_26
REMARK   13  A    between atoms: C_27  and  N_30
REMARK   14  A    between atoms: C_29  and  O_33
REMARK   15  A    between atoms: C_31  and  C_35
REMARK   16  A    between atoms: C_32  and  O_36
REMARK   17  A    between atoms: C_34  and  C_37
REMARK   18  A    between atoms: C_35  and  O_39
REMARK                            x       y       z     vdW  Elec       q    Type
REMARK                         _______ _______ _______ _____ _____    ______ ____
ROOT
ATOM      1  P   UNL     1       0.044   1.164  -4.479  0.00  0.00    +0.483 P 
ATOM      2  O   UNL     1      -0.491   0.715  -3.164  0.00  0.00    -0.227 OA
ENDROOT
BRANCH   1   3
ATOM      3  O   UNL     1       0.502   2.703  -4.509  0.00  0.00    -0.302 OA
ATOM      4  H   UNL     1      -0.207   3.314  -4.232  0.00  0.00    +0.222 HD
ENDBRANCH   1   3
BRANCH   1   5
ATOM      5  O   UNL     1       1.278   0.400  -5.098  0.00  0.00    -0.186 OA
BRANCH   5   6
ATOM      6  P   UNL     1       2.784   0.837  -4.927  0.00  0.00    +0.486 P 
ATOM      7  O   UNL     1       3.299   0.854  -3.529  0.00  0.00    -0.227 OA
BRANCH   6   8
ATOM      8  O   UNL     1       2.858   2.256  -5.665  0.00  0.00    -0.302 OA
ATOM      9  H   UNL     1       2.397   2.938  -5.130  0.00  0.00    +0.222 HD
ENDBRANCH   6   8
BRANCH   6  10
ATOM     10  O   UNL     1       3.503  -0.137  -5.981  0.00  0.00    -0.254 OA
BRANCH  10  11
ATOM     11  C   UNL     1       4.891  -0.296  -5.806  0.00  0.00    +0.285 C 
ATOM     12  C   UNL     1       5.527  -1.127  -6.959  0.00  0.00    +0.160 C 
ATOM     13  O   UNL     1       5.140  -0.948  -4.556  0.00  0.00    -0.341 OA
ATOM     14  C   UNL     1       5.130  -2.617  -6.857  0.00  0.00    +0.171 C 
ATOM     15  C   UNL     1       4.471  -2.215  -4.463  0.00  0.00    +0.178 C 
ATOM     16  C   UNL     1       5.157  -3.182  -5.419  0.00  0.00    +0.176 C 
BRANCH  12  17
ATOM     17  N   UNL     1       5.209  -0.617  -8.308  0.00  0.00    -0.305 N 
ATOM     18  C   UNL     1       5.665   0.600  -8.748  0.00  0.00    +0.210 C 
ATOM     19  C   UNL     1       5.341   0.909 -10.186  0.00  0.00    +0.109 C 
ATOM     20  O   UNL     1       6.266   1.389  -8.024  0.00  0.00    -0.276 OA
ATOM     21  H   UNL     1       4.879  -1.288  -8.991  0.00  0.00    +0.149 HD
ENDBRANCH  12  17
BRANCH  16  22
ATOM     22  O   UNL     1       4.539  -4.473  -5.375  0.00  0.00    -0.387 OA
ATOM     23  H   UNL     1       3.684  -4.429  -5.839  0.00  0.00    +0.210 HD
ENDBRANCH  16  22
BRANCH  14  24
ATOM     24  O   UNL     1       6.008  -3.385  -7.703  0.00  0.00    -0.387 OA
ATOM     25  H   UNL     1       6.883  -3.422  -7.270  0.00  0.00    +0.210 HD
ENDBRANCH  14  24
BRANCH  15  26
ATOM     26  C   UNL     1       4.512  -2.654  -3.001  0.00  0.00    +0.190 C 
BRANCH  26  27
ATOM     27  O   UNL     1       3.745  -1.747  -2.203  0.00  0.00    -0.392 OA
ATOM     28  H   UNL     1       4.004  -0.835  -2.463  0.00  0.00    +0.210 HD
ENDBRANCH  26  27
ENDBRANCH  15  26
ENDBRANCH  10  11
ENDBRANCH   6  10
ENDBRANCH   5   6
ENDBRANCH   1   5
BRANCH   1  29
ATOM     29  O   UNL     1      -1.004   1.088  -5.696  0.00  0.00    -0.284 OA
BRANCH  29  30
ATOM     30  C   UNL     1      -2.391   1.165  -5.411  0.00  0.00    +0.206 C 
BRANCH  30  34
ATOM     31  C   UNL     1      -3.397   4.180  -6.240  0.00  0.00    +0.255 C 
ATOM     32  O   UNL     1      -2.252   3.576  -5.583  0.00  0.00    -0.346 OA
ATOM     33  C   UNL     1      -4.633   3.337  -5.862  0.00  0.00    +0.195 C 
ATOM     34  C   UNL     1      -2.724   2.497  -4.739  0.00  0.00    +0.178 C 
ATOM     35  C   UNL     1      -4.207   2.729  -4.537  0.00  0.00    +0.178 C 
BRANCH  31  36
ATOM     36  N   UNL     1      -3.182   4.300  -7.684  0.00  0.00    -0.271 N 
ATOM     37  C   UNL     1      -3.853   5.337  -8.329  0.00  0.00    +0.331 A 
ATOM     38  C   UNL     1      -2.404   3.402  -8.395  0.00  0.00    +0.098 A 
ATOM     39  N   UNL     1      -3.690   5.402  -9.687  0.00  0.00    -0.275 N 
ATOM     40  O   UNL     1      -4.534   6.179  -7.752  0.00  0.00    -0.246 OA
ATOM     41  C   UNL     1      -2.239   3.495  -9.717  0.00  0.00    +0.088 A 
ATOM     42  C   UNL     1      -2.902   4.586 -10.444  0.00  0.00    +0.254 A 
ATOM     43  O   UNL     1      -2.740   4.735 -11.649  0.00  0.00    -0.268 OA
ATOM     44  H   UNL     1      -4.151   6.164 -10.161  0.00  0.00    +0.173 HD
ENDBRANCH  31  36
BRANCH  35  45
ATOM     45  O   UNL     1      -4.437   3.696  -3.495  0.00  0.00    -0.386 OA
ATOM     46  H   UNL     1      -3.629   4.221  -3.347  0.00  0.00    +0.210 HD
ENDBRANCH  35  45
BRANCH  33  47
ATOM     47  O   UNL     1      -5.830   4.089  -5.705  0.00  0.00    -0.385 OA
ATOM     48  H   UNL     1      -5.800   4.470  -4.802  0.00  0.00    +0.210 HD
ENDBRANCH  33  47
ENDBRANCH  30  34
ENDBRANCH  29  30
ENDBRANCH   1  29
TORSDOF 17
