REMARK  Name = 
REMARK  6 active torsions:
REMARK  status: ('A' for Active; 'I' for Inactive)
REMARK    1  A    between atoms: C_1  and  C_2
REMARK    2  A    between atoms: C_1  and  C_3
REMARK    3  A    between atoms: C_2  and  C_5
REMARK    4  A    between atoms: C_3  and  O_6
REMARK    5  A    between atoms: C_5  and  C_8
REMARK    6  A    between atoms: C_5  and  C_9
REMARK                            x       y       z     vdW  Elec       q    Type
REMARK                         _______ _______ _______ _____ _____    ______ ____
ROOT
ATOM      1  C   UNL     1       1.077   0.090  -0.086  0.00  0.00    +0.239 C 
ATOM      2  O   UNL     1       2.181  -0.017  -0.614  0.00  0.00    -0.285 OA
ENDROOT
BRANCH   1   3
ATOM      3  C   UNL     1       0.324   1.400  -0.307  0.00  0.00    +0.373 C 
ATOM      4  O   UNL     1      -0.788   1.619   0.128  0.00  0.00    -0.242 OA
BRANCH   3   5
ATOM      5  O   UNL     1       1.069   2.255  -1.032  0.00  0.00    -0.475 OA
ATOM      6  H   UNL     1       1.926   1.818  -1.261  0.00  0.00    +0.295 HD
ENDBRANCH   3   5
ENDBRANCH   1   3
BRANCH   1   7
ATOM      7  C   UNL     1       0.371  -0.976   0.718  0.00  0.00    +0.089 C 
BRANCH   7   8
ATOM      8  C   UNL     1       1.334  -1.911   1.465  0.00  0.00    -0.010 C 
ATOM      9  C   UNL     1       2.195  -1.152   2.478  0.00  0.00    +0.007 C 
ATOM     10  C   UNL     1       0.535  -2.999   2.186  0.00  0.00    +0.007 C 
ENDBRANCH   7   8
ENDBRANCH   1   7
TORSDOF 4
