REMARK  Name = 
REMARK  5 active torsions:
REMARK  status: ('A' for Active; 'I' for Inactive)
REMARK    1  A    between atoms: C_1  and  C_2
REMARK    2  A    between atoms: C_1  and  C_3
REMARK    3  A    between atoms: C_1  and  O_4
REMARK    4  A    between atoms: C_2  and  O_5
REMARK    5  A    between atoms: C_3  and  O_7
REMARK                            x       y       z     vdW  Elec       q    Type
REMARK                         _______ _______ _______ _____ _____    ______ ____
ROOT
ATOM      1  C   UNL     1       0.911   0.035   0.089  0.00  0.00    +0.248 C 
ENDROOT
BRANCH   1   2
ATOM      2  C   UNL     1       0.426  -0.107   1.527  0.00  0.00    +0.336 C 
ATOM      3  O   UNL     1      -0.632   0.320   1.963  0.00  0.00    -0.248 OA
BRANCH   2   4
ATOM      4  O   UNL     1       1.328  -0.785   2.285  0.00  0.00    -0.479 OA
ATOM      5  H   UNL     1       2.119  -0.969   1.724  0.00  0.00    +0.295 HD
ENDBRANCH   2   4
ENDBRANCH   1   2
BRANCH   1   6
ATOM      6  O   UNL     1       2.350  -0.031   0.107  0.00  0.00    -0.379 OA
ATOM      7  H   UNL     1       2.645   0.897   0.245  0.00  0.00    +0.211 HD
ENDBRANCH   1   6
BRANCH   1   8
ATOM      8  C   UNL     1       0.456   1.356  -0.522  0.00  0.00    +0.198 C 
BRANCH   8   9
ATOM      9  O   UNL     1       1.069   2.445   0.176  0.00  0.00    -0.392 OA
ATOM     10  H   UNL     1       0.451   2.705   0.890  0.00  0.00    +0.210 HD
ENDBRANCH   8   9
ENDBRANCH   1   8
TORSDOF 5
