REMARK  Name = 
REMARK  16 active torsions:
REMARK  status: ('A' for Active; 'I' for Inactive)
REMARK    1  A    between atoms: C_1  and  C_2
REMARK    2  A    between atoms: C_1  and  C_3
REMARK    3  A    between atoms: C_2  and  C_4
REMARK    4  A    between atoms: C_3  and  C_5
REMARK    5  A    between atoms: C_4  and  C_6
REMARK    6  A    between atoms: C_5  and  C_7
REMARK    7  A    between atoms: C_6  and  C_8
REMARK    8  A    between atoms: C_7  and  C_9
REMARK    9  A    between atoms: C_8  and  C_10
REMARK   10  A    between atoms: C_9  and  C_11
REMARK   11  A    between atoms: C_10  and  C_12
REMARK   12  A    between atoms: C_11  and  O_13
REMARK   13  A    between atoms: C_12  and  C_15
REMARK   14  A    between atoms: C_15  and  C_16
REMARK   15  A    between atoms: C_16  and  C_17
REMARK   16  A    between atoms: C_17  and  C_18
REMARK                            x       y       z     vdW  Elec       q    Type
REMARK                         _______ _______ _______ _____ _____    ______ ____
ROOT
ATOM      1  C   UNL     1       0.441  -0.150  -1.344  0.00  0.00    +0.000 C 
ENDROOT
BRANCH   1   2
ATOM      2  C   UNL     1       0.950   0.046   0.071  0.00  0.00    +0.000 C 
BRANCH   2   3
ATOM      3  C   UNL     1       2.466   0.049   0.079  0.00  0.00    +0.000 C 
BRANCH   3   4
ATOM      4  C   UNL     1       2.980   0.242   1.497  0.00  0.00    +0.001 C 
BRANCH   4   5
ATOM      5  C   UNL     1       4.502   0.247   1.499  0.00  0.00    +0.011 C 
BRANCH   5   6
ATOM      6  C   UNL     1       5.059   0.438   2.911  0.00  0.00    +0.120 C 
BRANCH   6   7
ATOM      7  C   UNL     1       6.575   0.443   2.907  0.00  0.00    +0.305 C 
ATOM      8  O   UNL     1       7.241   0.312   1.904  0.00  0.00    -0.251 OA
BRANCH   7   9
ATOM      9  O   UNL     1       7.153   0.607   4.113  0.00  0.00    -0.481 OA
ATOM     10  H   UNL     1       6.582   0.709   4.896  0.00  0.00    +0.295 HD
ENDBRANCH   7   9
ENDBRANCH   6   7
ENDBRANCH   5   6
ENDBRANCH   4   5
ENDBRANCH   3   4
ENDBRANCH   2   3
ENDBRANCH   1   2
BRANCH   1  11
ATOM     11  C   UNL     1      -1.075  -0.150  -1.349  0.00  0.00    -0.000 C 
BRANCH  11  12
ATOM     12  C   UNL     1      -1.585  -0.345  -2.763  0.00  0.00    -0.000 C 
BRANCH  12  13
ATOM     13  C   UNL     1      -3.101  -0.346  -2.768  0.00  0.00    -0.000 C 
BRANCH  13  14
ATOM     14  C   UNL     1      -3.612  -0.541  -4.183  0.00  0.00    -0.000 C 
BRANCH  14  15
ATOM     15  C   UNL     1      -5.128  -0.542  -4.189  0.00  0.00    -0.000 C 
BRANCH  15  16
ATOM     16  C   UNL     1      -5.640  -0.737  -5.604  0.00  0.00    -0.000 C 
BRANCH  16  17
ATOM     17  C   UNL     1      -7.159  -0.738  -5.611  0.00  0.00    -0.000 C 
BRANCH  17  18
ATOM     18  C   UNL     1      -7.677  -0.934  -7.027  0.00  0.00    -0.003 C 
ATOM     19  C   UNL     1      -9.191  -0.934  -7.032  0.00  0.00    +0.004 C 
ENDBRANCH  17  18
ENDBRANCH  16  17
ENDBRANCH  15  16
ENDBRANCH  14  15
ENDBRANCH  13  14
ENDBRANCH  12  13
ENDBRANCH  11  12
ENDBRANCH   1  11
TORSDOF 15
