REMARK  Name = 
REMARK  2 active torsions:
REMARK  status: ('A' for Active; 'I' for Inactive)
REMARK    1  A    between atoms: S_1  and  O_4
REMARK    2  A    between atoms: S_1  and  O_5
REMARK                            x       y       z     vdW  Elec       q    Type
REMARK                         _______ _______ _______ _____ _____    ______ ____
ROOT
ATOM      1  S   UNL     1       0.901   0.070   0.074  0.00  0.00    +0.205 S 
ATOM      2  O   UNL     1       0.495   0.649   1.330  0.00  0.00    -0.118 OA
ATOM      3  O   UNL     1       0.495   0.639  -1.188  0.00  0.00    -0.118 OA
ENDROOT
BRANCH   1   4
ATOM      4  O   UNL     1       0.450  -1.470   0.080  0.00  0.00    -0.231 OA
ATOM      5  H   UNL     1      -0.526  -1.503   0.080  0.00  0.00    +0.247 HD
ENDBRANCH   1   4
BRANCH   1   6
ATOM      6  O   UNL     1       2.503  -0.018   0.074  0.00  0.00    -0.231 OA
ATOM      7  H   UNL     1       2.860   0.891   0.070  0.00  0.00    +0.247 HD
ENDBRANCH   1   6
TORSDOF 2
