REMARK  Name = 
REMARK  5 active torsions:
REMARK  status: ('A' for Active; 'I' for Inactive)
REMARK    1  A    between atoms: CG_3  and  CB_6
REMARK    2  A    between atoms: CB_6  and  CA_7
REMARK    3  A    between atoms: CA_7  and  C_8
REMARK    4  A    between atoms: CA_7  and  N_11
REMARK    5  A    between atoms: C_8  and  O_9
REMARK                            x       y       z     vdW  Elec       q    Type
REMARK                         _______ _______ _______ _____ _____    ______ ____
ROOT
ATOM      1  CA  HIS A   1      -2.514  -2.408  -0.165  0.00  0.00    +0.166 C 
ENDROOT
BRANCH   1   2
ATOM      2  N   HIS A   1      -3.030  -3.805  -0.168  0.00  0.00    -0.318 NA
ATOM      3  H1  HIS A   1      -2.596  -4.402  -0.867  0.00  0.00    +0.119 HD
ATOM      4  H2  HIS A   1      -4.045  -3.861  -0.135  0.00  0.00    +0.119 HD
ENDBRANCH   1   2
BRANCH   1   5
ATOM      5  C   HIS A   1      -3.017  -1.611  -1.387  0.00  0.00    +0.322 C 
ATOM      6  OXT HIS A   1      -2.884  -0.405  -1.538  0.00  0.00    -0.249 OA
BRANCH   5   7
ATOM      7  O   HIS A   1      -3.698  -2.363  -2.288  0.00  0.00    -0.480 OA
ATOM      8  H   HIS A   1      -3.741  -3.290  -1.995  0.00  0.00    +0.295 HD
ENDBRANCH   5   7
ENDBRANCH   1   5
BRANCH   1   9
ATOM      9  CB  HIS A   1      -0.983  -2.440  -0.090  0.00  0.00    +0.086 C 
BRANCH   9  12
ATOM     10  CE1 HIS A   1       1.053   0.465  -0.321  0.00  0.00    +0.196 A 
ATOM     11  ND1 HIS A   1       0.663  -0.709  -0.758  0.00  0.00    -0.241 NA
ATOM     12  CG  HIS A   1      -0.323  -1.119   0.109  0.00  0.00    +0.061 A 
ATOM     13  CD2 HIS A   1      -0.497  -0.182   1.106  0.00  0.00    +0.107 A 
ATOM     14  NE2 HIS A   1       0.377   0.827   0.808  0.00  0.00    -0.351 N 
ATOM     15  HE2 HIS A   1       0.509   1.684   1.326  0.00  0.00    +0.166 HD
ENDBRANCH   9  12
ENDBRANCH   1   9
TORSDOF 5
