REMARK  Name = 
REMARK  4 active torsions:
REMARK  status: ('A' for Active; 'I' for Inactive)
REMARK    1  A    between atoms: C_1  and  C_2
REMARK    2  A    between atoms: C_1  and  N_3
REMARK    3  A    between atoms: C_2  and  O_5
REMARK    4  A    between atoms: N_3  and  C_6
REMARK                            x       y       z     vdW  Elec       q    Type
REMARK                         _______ _______ _______ _____ _____    ______ ____
ROOT
ATOM      1  C   UNL     1       0.903  -0.033   0.004  0.00  0.00    +0.202 C 
ENDROOT
BRANCH   1   2
ATOM      2  N   UNL     1       2.364  -0.208  -0.169  0.00  0.00    -0.310 NA
ATOM      3  C   UNL     1       2.860  -1.164   0.823  0.00  0.00    +0.101 C 
ATOM      4  H   UNL     1       2.808   0.696   0.026  0.00  0.00    +0.122 HD
ENDBRANCH   1   2
BRANCH   1   5
ATOM      5  C   UNL     1       0.398   0.956  -1.040  0.00  0.00    +0.319 C 
ATOM      6  O   UNL     1      -0.459   1.803  -0.852  0.00  0.00    -0.250 OA
BRANCH   5   7
ATOM      7  O   UNL     1       1.012   0.772  -2.240  0.00  0.00    -0.480 OA
ATOM      8  H   UNL     1       1.704   0.082  -2.120  0.00  0.00    +0.295 HD
ENDBRANCH   5   7
ENDBRANCH   1   5
TORSDOF 3
