REMARK  Name = 
REMARK  2 active torsions:
REMARK  status: ('A' for Active; 'I' for Inactive)
REMARK    1  A    between atoms: S_1  and  O_4
REMARK    2  A    between atoms: S_1  and  O_5
REMARK                            x       y       z     vdW  Elec       q    Type
REMARK                         _______ _______ _______ _____ _____    ______ ____
ROOT
ATOM      1  S   UNL     1       0.908  -0.113   0.061  0.00  0.00    +0.205 S 
ATOM      2  O   UNL     1       0.502  -1.407  -0.427  0.00  0.00    -0.118 OA
ATOM      3  O   UNL     1       0.502   0.367   1.359  0.00  0.00    -0.118 OA
ENDROOT
BRANCH   1   4
ATOM      4  O   UNL     1       0.457   0.980  -1.025  0.00  0.00    -0.231 OA
ATOM      5  H   UNL     1      -0.520   1.003  -1.048  0.00  0.00    +0.247 HD
ENDBRANCH   1   4
BRANCH   1   6
ATOM      6  O   UNL     1       2.510  -0.050  -0.001  0.00  0.00    -0.231 OA
ATOM      7  H   UNL     1       2.867  -0.695   0.640  0.00  0.00    +0.247 HD
ENDBRANCH   1   6
TORSDOF 2
