REMARK  Name = 
REMARK  13 active torsions:
REMARK  status: ('A' for Active; 'I' for Inactive)
REMARK    1  A    between atoms: O_1  and  C_2
REMARK    2  A    between atoms: C_2  and  CA_3
REMARK    3  A    between atoms: CA_3  and  CB_4
REMARK    4  A    between atoms: CA_3  and  N_15
REMARK    5  A    between atoms: CB_4  and  CG_5
REMARK    6  A    between atoms: CG_5  and  CD_6
REMARK    7  A    between atoms: N_7  and  CA_8
REMARK    8  A    between atoms: CA_8  and  C_9
REMARK    9  A    between atoms: CA_8  and  CB_17
REMARK   10  A    between atoms: N_10  and  CA_11
REMARK   11  A    between atoms: CA_11  and  C_12
REMARK   12  A    between atoms: C_12  and  O_13
REMARK   13  A    between atoms: CB_17  and  SG_18
REMARK                            x       y       z     vdW  Elec       q    Type
REMARK                         _______ _______ _______ _____ _____    ______ ____
ROOT
ATOM      1  CD  CYS A   1       2.243   0.199  -1.696  0.00  0.00    +0.214 C 
ATOM      2  N   CYS A   1       1.402  -0.878  -1.570  0.00  0.00    -0.303 N 
ATOM      3  OE1 CYS A   1       1.913   1.330  -1.366  0.00  0.00    -0.276 OA
ATOM      4  H   CYS A   1       1.803  -1.801  -1.682  0.00  0.00    +0.149 HD
ENDROOT
BRANCH   1   5
ATOM      5  CG  CYS A   1       3.571  -0.102  -2.362  0.00  0.00    +0.098 C 
BRANCH   5   6
ATOM      6  CB  CYS A   1       3.480  -0.192  -3.889  0.00  0.00    +0.039 C 
BRANCH   6   7
ATOM      7  CA  CYS A   1       3.159   1.110  -4.647  0.00  0.00    +0.161 C 
BRANCH   7   8
ATOM      8  N   CYS A   1       4.175   2.142  -4.367  0.00  0.00    -0.318 NA
ATOM      9  H1  CYS A   1       3.969   2.553  -3.449  0.00  0.00    +0.119 HD
ATOM     10  H2  CYS A   1       4.014   2.929  -5.003  0.00  0.00    +0.119 HD
ENDBRANCH   7   8
BRANCH   7  11
ATOM     11  C   CYS A   1       1.740   1.658  -4.396  0.00  0.00    +0.322 C 
ATOM     12  OXT CYS A   1       1.494   2.783  -3.982  0.00  0.00    -0.249 OA
BRANCH  11  13
ATOM     13  O   CYS A   1       0.753   0.790  -4.714  0.00  0.00    -0.480 OA
ATOM     14  H   CYS A   1       1.053  -0.043  -5.122  0.00  0.00    +0.295 HD
ENDBRANCH  11  13
ENDBRANCH   7  11
ENDBRANCH   6   7
ENDBRANCH   5   6
ENDBRANCH   1   5
BRANCH   2  15
ATOM     15  CA  CYS A   1       0.114  -0.817  -0.858  0.00  0.00    +0.168 C 
BRANCH  15  16
ATOM     16  C   CYS A   1      -0.974  -0.095  -1.678  0.00  0.00    +0.235 C 
ATOM     17  N   GLY A   2      -0.862   1.264  -1.813  0.00  0.00    -0.303 N 
ATOM     18  O   CYS A   1      -1.962  -0.690  -2.113  0.00  0.00    -0.274 OA
ATOM     19  H   GLY A   2       0.080   1.642  -1.669  0.00  0.00    +0.149 HD
BRANCH  17  20
ATOM     20  CA  GLY A   2      -1.694   2.044  -2.731  0.00  0.00    +0.224 C 
BRANCH  20  21
ATOM     21  C   GLY A   2      -3.174   2.235  -2.372  0.00  0.00    +0.322 C 
ATOM     22  OXT GLY A   2      -3.816   3.230  -2.683  0.00  0.00    -0.249 OA
BRANCH  21  23
ATOM     23  O   GLY A   2      -3.774   1.159  -1.812  0.00  0.00    -0.480 OA
ATOM     24  H   GLY A   2      -3.198   0.361  -1.845  0.00  0.00    +0.295 HD
ENDBRANCH  21  23
ENDBRANCH  20  21
ENDBRANCH  17  20
ENDBRANCH  15  16
BRANCH  15  25
ATOM     25  CB  CYS A   1       0.149  -0.249   0.573  0.00  0.00    +0.097 C 
BRANCH  25  26
ATOM     26  SG  CYS A   1       1.322  -1.128   1.661  0.00  0.00    -0.176 S 
ATOM     27  HG  CYS A   1       0.630  -2.272   1.755  0.00  0.00    +0.102 HD
ENDBRANCH  25  26
ENDBRANCH  15  25
ENDBRANCH   2  15
TORSDOF 13
