REMARK  Name = 
REMARK  3 active torsions:
REMARK  status: ('A' for Active; 'I' for Inactive)
REMARK    1  A    between atoms: C_1  and  C_2
REMARK    2  A    between atoms: C_1  and  O_3
REMARK    3  A    between atoms: C_2  and  O_5
REMARK                            x       y       z     vdW  Elec       q    Type
REMARK                         _______ _______ _______ _____ _____    ______ ____
ROOT
ATOM      1  C   UNL     1       1.077   0.061   0.059  0.00  0.00    +0.415 C 
ATOM      2  O   UNL     1       2.292  -0.004   0.086  0.00  0.00    -0.238 OA
ENDROOT
BRANCH   1   3
ATOM      3  C   UNL     1       0.216  -1.112   0.558  0.00  0.00    +0.415 C 
ATOM      4  O   UNL     1      -1.000  -1.047   0.531  0.00  0.00    -0.238 OA
BRANCH   3   5
ATOM      5  O   UNL     1       0.955  -2.145   0.995  0.00  0.00    -0.473 OA
ATOM      6  H   UNL     1       1.917  -1.939   0.906  0.00  0.00    +0.296 HD
ENDBRANCH   3   5
ENDBRANCH   1   3
BRANCH   1   7
ATOM      7  O   UNL     1       0.337   1.093  -0.379  0.00  0.00    -0.473 OA
ATOM      8  H   UNL     1      -0.624   0.887  -0.291  0.00  0.00    +0.296 HD
ENDBRANCH   1   7
TORSDOF 3
