REMARK  Name = 
REMARK  6 active torsions:
REMARK  status: ('A' for Active; 'I' for Inactive)
REMARK    1  A    between atoms: C_1  and  C_2
REMARK    2  A    between atoms: C_1  and  C_3
REMARK    3  A    between atoms: C_1  and  O_4
REMARK    4  A    between atoms: C_2  and  C_5
REMARK    5  A    between atoms: C_3  and  O_6
REMARK    6  A    between atoms: C_5  and  O_8
REMARK                            x       y       z     vdW  Elec       q    Type
REMARK                         _______ _______ _______ _____ _____    ______ ____
ROOT
ATOM      1  C   UNL     1       1.091  -0.086   0.034  0.00  0.00    +0.233 C 
ENDROOT
BRANCH   1   2
ATOM      2  C   UNL     1       0.497  -1.331   0.686  0.00  0.00    +0.334 C 
ATOM      3  O   UNL     1      -0.583  -1.827   0.413  0.00  0.00    -0.248 OA
BRANCH   2   4
ATOM      4  O   UNL     1       1.332  -1.850   1.624  0.00  0.00    -0.479 OA
ATOM      5  H   UNL     1       2.139  -1.297   1.716  0.00  0.00    +0.295 HD
ENDBRANCH   2   4
ENDBRANCH   1   2
BRANCH   1   6
ATOM      6  O   UNL     1       2.532  -0.179   0.072  0.00  0.00    -0.380 OA
ATOM      7  H   UNL     1       2.785  -0.977  -0.441  0.00  0.00    +0.211 HD
ENDBRANCH   1   6
BRANCH   1   8
ATOM      8  C   UNL     1       0.638   0.078  -1.405  0.00  0.00    +0.163 C 
BRANCH   8   9
ATOM      9  C   UNL     1       1.072   1.389  -2.012  0.00  0.00    +0.308 C 
ATOM     10  O   UNL     1       0.420   1.970  -2.867  0.00  0.00    -0.251 OA
BRANCH   9  11
ATOM     11  O   UNL     1       2.285   1.835  -1.620  0.00  0.00    -0.481 OA
ATOM     12  H   UNL     1       2.735   1.278  -0.946  0.00  0.00    +0.295 HD
ENDBRANCH   9  11
ENDBRANCH   8   9
ENDBRANCH   1   8
TORSDOF 6
